<UPF version="2.0.1">
  <PP_INFO>
    Generated using "atomic" code by A. Dal Corso  v.6.8
    Author: D.C.
    Generation date: 25Oct2024
    Pseudopotential type: USPP
    Element: Dy
    Functional: PBE
    Suggested minimum cutoff for wavefunctions:  69. Ry
    Suggested minimum cutoff for charge density: 275. Ry
    The Pseudo was generated with a Scalar-Relativistic Calculation
    L component and cutoff radius for Local Potential:  2   2.1000
    Pseudopotential contains additional information for GIPAW reconstruction.
    Valence configuration: 
    nl pn  l   occ       Rcut    Rcut US       E pseu
    4F  4  3 10.00      1.300      2.000    -0.228375
    5F  5  3  0.00      1.300      2.000     0.000356
    5P  2  1  6.00      1.300      1.800    -1.863055
    6P  3  1  0.00      1.300      1.800    -0.085203
    5S  1  0  2.00      1.300      1.600    -3.595359
    6S  2  0  2.00      1.300      1.600    -0.275320
    5D  3  2  0.00      4.235      4.659    -0.086022
    Generation configuration:
    4F  4  3 10.00      1.300      2.000    -0.228444
    5F  5  3  0.00      1.300      2.000     0.500000
    5P  2  1  6.00      1.300      1.800    -1.863098
    6P  3  1  0.00      1.300      1.800     0.500000
    5S  1  0  2.00      1.300      1.600    -3.595413
    6S  2  0  2.00      1.300      1.600    -0.275332
    5D  3  2  0.00      2.100      2.100    -0.086042
    Pseudization used: troullier-martins
    <PP_INPUTFILE>
@input
title = 'Dy'
prefix = 'dy'
verbosity = 'high'
zed = 66
dft = 'pbe'
rel = 1
iswitch = 3
beta = 0.2
xmin = -8.0, dx = 0.01
nld = 4, rlderiv = 3.4, eminld  = -5.0, emaxld  = 5.0, deld = 0.002
/
16
1S  1  0   2.0
2S  2  0   2.0
2P  2  1   6.0
3S  3  0   2.0
3P  3  1   6.0
3D  3  2  10.0
4S  4  0   2.0
4P  4  1   6.0
4D  4  2  10.0
5S  5  0   2.0
5P  5  1   6.0
5D  5  2   0.0
4F  4  3  10.0
6S  6  0   2.0
6P  6  1   0.0
5F  5  3   0.0
@inputp
pseudotype = 3
lloc = 2
rcloc = 2.1
tm = .true.
nlcc = .true.
new_core_ps = .true.
rcore = 1.3
file_core = 'dy.core'
file_pseudopw = 'Dy.pbe-rrkjus-semi-gipaw-dc.UPF'
lgipaw_reconstruction = .true.
!upf_v1_format = .true.
author = 'D.C.'
/
7
4F  4  3 10.0  0.00  1.30  2.00
5F  5  3  0.0  0.50  1.30  2.00
5P  2  1  6.0  0.00  1.30  1.80
6P  3  1  0.0  0.50  1.30  1.80
5S  1  0  2.0  0.00  1.30  1.60
6S  2  0  2.0  0.00  1.30  1.60
5D  3  2  0.0  0.00  2.10  2.10
@test
ecutmin = 20
ecutmax = 60
decut   = 5
/
7
4F  4  3 10.0  0.00  1.30  2.00
5F  5  3  0.0  0.50  1.30  2.00
5P  2  1  6.0  0.00  1.30  1.80
6P  3  1  0.0  0.50  1.30  1.80
5S  1  0  2.0  0.00  1.30  1.60
6S  2  0  2.0  0.00  1.30  1.60
5D  3  2  0.0  0.00  2.10  2.10
    </PP_INPUTFILE>
  </PP_INFO>
    <!-- END OF HUMAN READABLE SECTION -->
  <PP_HEADER generated="Generated using 'atomic' code by A. Dal Corso  v.6.8" author="D.C." date="25Oct2024" comment="" element="Dy" pseudo_type="USPP" relativistic="scalar" is_ultrasoft="true" is_paw="false" is_coulomb="false" has_so="false" has_wfc="false" has_gipaw="true" paw_as_gipaw="false" core_correction="true" functional="PBE" z_valence="20.0000000000000" total_psenergy="-298.229838267356" wfc_cutoff="68.7783408175292" rho_cutoff="275.113363270117" l_max="3" l_max_rho="6" l_local="2" mesh_size="1681" number_of_wfc="7" number_of_proj="6"/>
  <PP_MESH mesh="1681" dx="1.000000000000000E-002" xmin="-8.00000000000000" rmax="100.000000000000" zmesh="66.0000000000000">
    <PP_R>
   5.082767089431998E-06   5.133849747930699E-06   5.185445795682415E-06
   5.237560392334924E-06   5.290198749391309E-06   5.343366130731148E-06
   5.397067853136879E-06   5.451309286825501E-06   5.506095855985573E-06
   5.561433039319673E-06   5.617326370592246E-06   5.673781439183005E-06
   5.730803890645845E-06   5.788399427273435E-06   5.846573808667434E-06
   5.905332852314467E-06   5.964682434167853E-06   6.024628489235240E-06
   6.085177012172092E-06   6.146334057881164E-06   6.208105742117982E-06
   6.270498242102449E-06   6.333517797136559E-06   6.397170709228339E-06
   6.461463343722027E-06   6.526402129934660E-06   6.591993561798972E-06
   6.658244198512810E-06   6.725160665195061E-06   6.792749653548144E-06
   6.861017922527227E-06   6.929972299016095E-06   6.999619678509868E-06
   7.069967025804521E-06   7.141021375693415E-06   7.212789833670747E-06
   7.285279576642132E-06   7.358497853642261E-06   7.432451986559856E-06
   7.507149370869838E-06   7.582597476372892E-06   7.658803847942429E-06
   7.735776106279119E-06   7.813521948672937E-06   7.892049149772919E-06
   7.971365562364602E-06   8.051479118155348E-06   8.132397828567497E-06
   8.214129785539532E-06   8.296683162335245E-06   8.380066214361115E-06
   8.464287279991834E-06   8.549354781404149E-06   8.635277225419097E-06
   8.722063204352668E-06   8.809721396875084E-06   8.898260568878655E-06
   8.987689574354349E-06   9.078017356277243E-06   9.169252947500807E-06
   9.261405471660186E-06   9.354484144084605E-06   9.448498272718856E-06
   9.543457259054151E-06   9.639370599068259E-06   9.736247884175119E-06
   9.834098802183956E-06   9.932933138268118E-06   1.003276077594358E-05
   1.013359169805731E-05   1.023543598778552E-05   1.033830382964207E-05
   1.044220551049687E-05   1.054715142060458E-05   1.065315205464368E-05
   1.076021801276589E-05   1.086836000165626E-05   1.097758883560380E-05
   1.108791543758292E-05   1.119935084034575E-05   1.131190618752544E-05
   1.142559273475052E-05   1.154042185077041E-05   1.165640501859244E-05
   1.177355383663002E-05   1.189188001986260E-05   1.201139540100711E-05
   1.213211193170123E-05   1.225404168369866E-05   1.237719685007619E-05
   1.250158974645310E-05   1.262723281222267E-05   1.275413861179620E-05
   1.288231983585939E-05   1.301178930264147E-05   1.314255995919701E-05
   1.327464488270063E-05   1.340805728175477E-05   1.354281049771051E-05
   1.367891800600172E-05   1.381639341749267E-05   1.395525047983907E-05
   1.409550307886286E-05   1.423716523994085E-05   1.438025112940716E-05
   1.452477505597000E-05   1.467075147214246E-05   1.481819497568780E-05
   1.496712031107923E-05   1.511754237097442E-05   1.526947619770470E-05
   1.542293698477938E-05   1.557794007840500E-05   1.573450097902012E-05
   1.589263534284529E-05   1.605235898344864E-05   1.621368787332734E-05
   1.637663814550483E-05   1.654122609514410E-05   1.670746818117730E-05
   1.687538102795156E-05   1.704498142689147E-05   1.721628633817827E-05
   1.738931289244586E-05   1.756407839249381E-05   1.774060031501779E-05
   1.791889631235716E-05   1.809898421426023E-05   1.828088202966728E-05
   1.846460794851140E-05   1.865018034353759E-05   1.883761777214002E-05
   1.902693897821772E-05   1.921816289404907E-05   1.941130864218502E-05
   1.960639553736133E-05   1.980344308843012E-05   2.000247100031065E-05
   2.020349917595999E-05   2.040654771836325E-05   2.061163693254385E-05
   2.081878732759412E-05   2.102801961872620E-05   2.123935472934355E-05
   2.145281379313337E-05   2.166841815617992E-05   2.188618937909914E-05
   2.210614923919483E-05   2.232831973263631E-05   2.255272307665802E-05
   2.277938171178140E-05   2.300831830405884E-05   2.323955574734035E-05
   2.347311716556297E-05   2.370902591506313E-05   2.394730558691238E-05
   2.418798000927650E-05   2.443107324979824E-05   2.467660961800425E-05
   2.492461366773598E-05   2.517511019960506E-05   2.542812426347345E-05
   2.568368116095834E-05   2.594180644796247E-05   2.620252593722965E-05
   2.646586570092606E-05   2.673185207324751E-05   2.700051165305290E-05
   2.727187130652411E-05   2.754595816985259E-05   2.782279965195314E-05
   2.810242343720459E-05   2.838485748821853E-05   2.867013004863545E-05
   2.895826964594906E-05   2.924930509435923E-05   2.954326549765334E-05
   2.984018025211669E-05   3.014007904947217E-05   3.044299187984940E-05
   3.074894903478385E-05   3.105798111024602E-05   3.137011900970092E-05
   3.168539394719864E-05   3.200383745049567E-05   3.232548136420770E-05
   3.265035785299417E-05   3.297849940477463E-05   3.330993883397775E-05
   3.364470928482266E-05   3.398284423463338E-05   3.432437749718669E-05
   3.466934322609347E-05   3.501777591821408E-05   3.536971041710807E-05
   3.572518191651868E-05   3.608422596389198E-05   3.644687846393196E-05
   3.681317568219087E-05   3.718315424869571E-05   3.755685116161149E-05
   3.793430379094091E-05   3.831554988226145E-05   3.870062756049998E-05
   3.908957533374515E-05   3.948243209709846E-05   3.987923713656364E-05
   4.028003013297526E-05   4.068485116596698E-05   4.109374071797945E-05
   4.150673967830861E-05   4.192388934719467E-05   4.234523143995218E-05
   4.277080809114146E-05   4.320066185878234E-05   4.363483572860975E-05
   4.407337311837249E-05   4.451631788217500E-05   4.496371431486279E-05
   4.541560715645195E-05   4.587204159660326E-05   4.633306327914102E-05
   4.679871830661775E-05   4.726905324492416E-05   4.774411512794609E-05
   4.822395146226768E-05   4.870861023192227E-05   4.919813990319070E-05
   4.969258942944808E-05   5.019200825605898E-05   5.069644632532235E-05
   5.120595408146538E-05   5.172058247568834E-05   5.224038297125949E-05
   5.276540754866157E-05   5.329570871078983E-05   5.383133948820240E-05
   5.437235344442345E-05   5.491880468129933E-05   5.547074784440922E-05
   5.602823812852927E-05   5.659133128315254E-05   5.716008361806371E-05
   5.773455200897026E-05   5.831479390318999E-05   5.890086732539591E-05
   5.949283088341855E-05   6.009074377410710E-05   6.069466578924879E-05
   6.130465732154846E-05   6.192077937066767E-05   6.254309354932478E-05
   6.317166208945624E-05   6.380654784843993E-05   6.444781431538068E-05
   6.509552561745975E-05   6.574974652634696E-05   6.641054246467842E-05
   6.707797951259866E-05   6.775212441436867E-05   6.843304458504041E-05
   6.912080811719836E-05   6.981548378776897E-05   7.051714106489806E-05
   7.122585011489819E-05   7.194168180926482E-05   7.266470773176396E-05
   7.339500018559042E-05   7.413263220059812E-05   7.487767754060330E-05
   7.563021071076086E-05   7.639030696501483E-05   7.715804231362417E-05
   7.793349353076339E-05   7.871673816220047E-05   7.950785453305128E-05
   8.030692175561216E-05   8.111401973727125E-05   8.192922918849939E-05
   8.275263163092089E-05   8.358430940546631E-05   8.442434568060602E-05
   8.527282446066766E-05   8.612983059423629E-05   8.699544978263943E-05
   8.786976858851729E-05   8.875287444447905E-05   8.964485566184632E-05
   9.054580143948399E-05   9.145580187272076E-05   9.237494796235815E-05
   9.330333162377117E-05   9.424104569609958E-05   9.518818395153209E-05
   9.614484110468348E-05   9.711111282206641E-05   9.808709573165765E-05
   9.907288743256166E-05   1.000685865047699E-04   1.010742925190193E-04
   1.020901060467495E-04   1.031161286701597E-04   1.041524629923674E-04
   1.051992126476684E-04   1.062564823119004E-04   1.073243777129110E-04
   1.084030056411301E-04   1.094924739602494E-04   1.105928916180088E-04
   1.117043686570911E-04   1.128270162261263E-04   1.139609465908070E-04
   1.151062731451146E-04   1.162631104226589E-04   1.174315741081318E-04
   1.186117810488753E-04   1.198038492665673E-04   1.210078979690228E-04
   1.222240475621154E-04   1.234524196618179E-04   1.246931371063641E-04
   1.259463239685321E-04   1.272121055680527E-04   1.284906084841404E-04
   1.297819605681524E-04   1.310862909563732E-04   1.324037300829286E-04
   1.337344096928291E-04   1.350784628551447E-04   1.364360239763115E-04
   1.378072288135731E-04   1.391922144885556E-04   1.405911195009810E-04
   1.420040837425160E-04   1.434312485107625E-04   1.448727565233864E-04
   1.463287519323904E-04   1.477993803385288E-04   1.492847888058675E-04
   1.507851258764913E-04   1.523005415853574E-04   1.538311874752994E-04
   1.553772166121822E-04   1.569387836002075E-04   1.585160445973757E-04
   1.601091573311008E-04   1.617182811139837E-04   1.633435768597438E-04
   1.649852070993098E-04   1.666433359970740E-04   1.683181293673077E-04
   1.700097546907437E-04   1.717183811313240E-04   1.734441795531168E-04
   1.751873225374020E-04   1.769479843999311E-04   1.787263412083572E-04
   1.805225707998431E-04   1.823368527988451E-04   1.841693686350748E-04
   1.860203015616430E-04   1.878898366733848E-04   1.897781609253695E-04
   1.916854631515955E-04   1.936119340838754E-04   1.955577663709071E-04
   1.975231545975415E-04   1.995082953042387E-04   2.015133870067237E-04
   2.035386302158379E-04   2.055842274575899E-04   2.076503832934082E-04
   2.097373043405987E-04   2.118451992930047E-04   2.139742789418782E-04
   2.161247561969584E-04   2.182968461077629E-04   2.204907658850928E-04
   2.227067349227543E-04   2.249449748194975E-04   2.272057094011775E-04
   2.294891647431362E-04   2.317955691928109E-04   2.341251533925684E-04
   2.364781503027702E-04   2.388547952250680E-04   2.412553258259346E-04
   2.436799821604308E-04   2.461290066962101E-04   2.486026443377676E-04
   2.511011424509281E-04   2.536247508875853E-04   2.561737220106860E-04
   2.587483107194665E-04   2.613487744749434E-04   2.639753733256593E-04
   2.666283699336878E-04   2.693080296009009E-04   2.720146202954980E-04
   2.747484126788042E-04   2.775096801323360E-04   2.802986987851400E-04
   2.831157475414057E-04   2.859611081083560E-04   2.888350650244187E-04
   2.917379056876806E-04   2.946699203846273E-04   2.976314023191712E-04
   3.006226476419741E-04   3.036439554800608E-04   3.066956279667330E-04
   3.097779702717828E-04   3.128912906320086E-04   3.160359003820412E-04
   3.192121139854761E-04   3.224202490663209E-04   3.256606264407564E-04
   3.289335701492208E-04   3.322394074888123E-04   3.355784690460201E-04
   3.389510887297819E-04   3.423576038048767E-04   3.457983549256511E-04
   3.492736861700846E-04   3.527839450741971E-04   3.563294826668046E-04
   3.599106535046211E-04   3.635278157077149E-04   3.671813309953200E-04
   3.708715647220101E-04   3.745988859142332E-04   3.783636673072146E-04
   3.821662853822306E-04   3.860071204042578E-04   3.898865564599991E-04
   3.938049814962933E-04   3.977627873589087E-04   4.017603698317300E-04
   4.057981286763360E-04   4.098764676719758E-04   4.139957946559480E-04
   4.181565215643831E-04   4.223590644734396E-04   4.266038436409106E-04
   4.308912835482503E-04   4.352218129430217E-04   4.395958648817735E-04
   4.440138767733446E-04   4.484762904226063E-04   4.529835520746412E-04
   4.575361124593712E-04   4.621344268366285E-04   4.667789550416832E-04
   4.714701615312253E-04   4.762085154298138E-04   4.809944905767869E-04
   4.858285655736482E-04   4.907112238319250E-04   4.956429536215124E-04
   5.006242481194990E-04   5.056556054594864E-04   5.107375287814002E-04
   5.158705262818083E-04   5.210551112647381E-04   5.262918021930083E-04
   5.315811227400764E-04   5.369236018424036E-04   5.423197737523530E-04
   5.477701780916123E-04   5.532753599051579E-04   5.588358697157578E-04
   5.644522635790274E-04   5.701251031390333E-04   5.758549556844596E-04
   5.816423942053344E-04   5.874879974503335E-04   5.933923499846525E-04
   5.993560422484658E-04   6.053796706159684E-04   6.114638374550174E-04
   6.176091511873669E-04   6.238162263495114E-04   6.300856836541391E-04
   6.364181500522053E-04   6.428142587956271E-04   6.492746495006091E-04
   6.557999682116048E-04   6.623908674659233E-04   6.690480063589828E-04
   6.757720506102199E-04   6.825636726296640E-04   6.894235515851753E-04
   6.963523734703667E-04   7.033508311732007E-04   7.104196245452804E-04
   7.175594604718322E-04   7.247710529423995E-04   7.320551231222389E-04
   7.394123994244391E-04   7.468436175827602E-04   7.543495207252113E-04
   7.619308594483616E-04   7.695883918924019E-04   7.773228838169566E-04
   7.851351086776642E-04   7.930258477035209E-04   8.009958899750059E-04
   8.090460325029864E-04   8.171770803084245E-04   8.253898465028766E-04
   8.336851523698069E-04   8.420638274467135E-04   8.505267096080867E-04
   8.590746451491955E-04   8.677084888707171E-04   8.764291041642194E-04
   8.852373630984974E-04   8.941341465067854E-04   9.031203440748385E-04
   9.121968544299026E-04   9.213645852305753E-04   9.306244532575776E-04
   9.399773845054286E-04   9.494243142750482E-04   9.589661872672838E-04
   9.686039576773874E-04   9.783385892904314E-04   9.881710555776902E-04
   9.981023397939845E-04   1.008133435076013E-03   1.018265344541663E-03
   1.028499081390325E-03   1.038835669004211E-03   1.049276141050697E-03
   1.059821541585687E-03   1.070472925158025E-03   1.081231356914941E-03
   1.092097912708577E-03   1.103073679203569E-03   1.114159753985713E-03
   1.125357245671726E-03   1.136667274020106E-03   1.148090970043113E-03
   1.159629476119871E-03   1.171283946110603E-03   1.183055545472018E-03
   1.194945451373863E-03   1.206954852816636E-03   1.219084950750492E-03
   1.231336958195329E-03   1.243712100362103E-03   1.256211614775343E-03
   1.268836751396909E-03   1.281588772750981E-03   1.294468954050322E-03
   1.307478583323795E-03   1.320618961545172E-03   1.333891402763221E-03
   1.347297234233127E-03   1.360837796549207E-03   1.374514443778978E-03
   1.388328543598559E-03   1.402281477429444E-03   1.416374640576643E-03
   1.430609442368217E-03   1.444987306296207E-03   1.459509670158985E-03
   1.474177986205042E-03   1.488993721278205E-03   1.503958356964329E-03
   1.519073389739451E-03   1.534340331119445E-03   1.549760707811173E-03
   1.565336061865155E-03   1.581067950829773E-03   1.596957947907035E-03
   1.613007642109891E-03   1.629218638421136E-03   1.645592557953909E-03
   1.662131038113809E-03   1.678835732762634E-03   1.695708312383772E-03
   1.712750464249241E-03   1.729963892588432E-03   1.747350318758523E-03
   1.764911481416621E-03   1.782649136693625E-03   1.800565058369843E-03
   1.818661038052375E-03   1.836938885354267E-03   1.855400428075484E-03
   1.874047512385679E-03   1.892882003008824E-03   1.911905783409678E-03
   1.931120755982133E-03   1.950528842239458E-03   1.970131983006453E-03
   1.989932138613531E-03   2.009931289092754E-03   2.030131434375833E-03
   2.050534594494132E-03   2.071142809780664E-03   2.091958141074135E-03
   2.112982669925015E-03   2.134218498803712E-03   2.155667751310811E-03
   2.177332572389439E-03   2.199215128539754E-03   2.221317608035608E-03
   2.243642221143370E-03   2.266191200342957E-03   2.288966800551074E-03
   2.311971299346726E-03   2.335206997198961E-03   2.358676217696930E-03
   2.382381307782237E-03   2.406324637983647E-03   2.430508602654132E-03
   2.454935620210314E-03   2.479608133374305E-03   2.504528609417978E-03
   2.529699540409707E-03   2.555123443463568E-03   2.580802860991053E-03
   2.606740360955311E-03   2.632938537127957E-03   2.659400009348437E-03
   2.686127423786028E-03   2.713123453204444E-03   2.740390797229123E-03
   2.767932182617191E-03   2.795750363530142E-03   2.823848121809243E-03
   2.852228267253739E-03   2.880893637901826E-03   2.909847100314458E-03
   2.939091549862000E-03   2.968629911013778E-03   2.998465137630525E-03
   3.028600213259767E-03   3.059038151434174E-03   3.089781995972932E-03
   3.120834821286113E-03   3.152199732682127E-03   3.183879866678255E-03
   3.215878391314289E-03   3.248198506469363E-03   3.280843444181925E-03
   3.313816468972952E-03   3.347120878172398E-03   3.380760002248937E-03
   3.414737205143010E-03   3.449055884603225E-03   3.483719472526119E-03
   3.518731435299376E-03   3.554095274148449E-03   3.589814525486695E-03
   3.625892761269009E-03   3.662333589349037E-03   3.699140653839955E-03
   3.736317635478888E-03   3.773868251994974E-03   3.811796258481159E-03
   3.850105447769701E-03   3.888799650811455E-03   3.927882737058964E-03
   3.967358614853425E-03   4.007231231815515E-03   4.047504575240155E-03
   4.088182672495257E-03   4.129269591424434E-03   4.170769440753824E-03
   4.212686370502941E-03   4.255024572399695E-03   4.297788280299552E-03
   4.340981770608941E-03   4.384609362712887E-03   4.428675419406962E-03
   4.473184347333550E-03   4.518140597422536E-03   4.563548665336394E-03
   4.609413091919761E-03   4.655738463653505E-03   4.702529413113409E-03
   4.749790619433413E-03   4.797526808773536E-03   4.845742754792485E-03
   4.894443279125044E-03   4.943633251864235E-03   4.993317592048322E-03
   5.043501268152722E-03   5.094189298586869E-03   5.145386752196047E-03
   5.197098748768282E-03   5.249330459546327E-03   5.302087107744780E-03
   5.355373969072427E-03   5.409196372259807E-03   5.463559699592098E-03
   5.518469387447324E-03   5.573930926840036E-03   5.629949863970388E-03
   5.686531800778784E-03   5.743682395506045E-03   5.801407363259274E-03
   5.859712476583350E-03   5.918603566038201E-03   5.978086520781837E-03
   6.038167289159306E-03   6.098851879297514E-03   6.160146359706051E-03
   6.222056859884024E-03   6.284589570933052E-03   6.347750746176347E-03
   6.411546701784077E-03   6.475983817404952E-03   6.541068536804238E-03
   6.606807368508115E-03   6.673206886454532E-03   6.740273730650627E-03
   6.808014607836692E-03   6.876436292156907E-03   6.945545625836718E-03
   7.015349519867095E-03   7.085854954695596E-03   7.157068980924465E-03
   7.228998720015671E-03   7.301651365003070E-03   7.375034181211694E-03
   7.449154506984319E-03   7.524019754415294E-03   7.599637410091754E-03
   7.676015035842269E-03   7.753160269493069E-03   7.831080825631805E-03
   7.909784496379036E-03   7.989279152167406E-03   8.069572742528747E-03
   8.150673296889007E-03   8.232588925371214E-03   8.315327819606463E-03
   8.398898253553139E-03   8.483308584324273E-03   8.568567253023287E-03
   8.654682785588107E-03   8.741663793643739E-03   8.829518975363479E-03
   8.918257116338714E-03   9.007887090457495E-03   9.098417860791911E-03
   9.189858480494445E-03   9.282218093703271E-03   9.375505936456684E-03
   9.469731337616681E-03   9.564903719801909E-03   9.661032600329897E-03
   9.758127592168812E-03   9.856198404898738E-03   9.955254845682680E-03
   1.005530682024726E-02   1.015636433387333E-02   1.025843749239644E-02
   1.036153650321751E-02   1.046567167632355E-02   1.057085342531866E-02
   1.067709226846536E-02   1.078439882973651E-02   1.089278383987767E-02
   1.100225813748016E-02   1.111283267006499E-02   1.122451849517755E-02
   1.133732678149341E-02   1.145126880993523E-02   1.156635597480081E-02
   1.168259978490252E-02   1.180001186471826E-02   1.191860395555384E-02
   1.203838791671719E-02   1.215937572670422E-02   1.228157948439677E-02
   1.240501141027245E-02   1.252968384762671E-02   1.265560926380715E-02
   1.278280025146036E-02   1.291126952979108E-02   1.304102994583422E-02
   1.317209447573949E-02   1.330447622606911E-02   1.343818843510844E-02
   1.357324447418983E-02   1.370965784902969E-02   1.384744220107922E-02
   1.398661130888842E-02   1.412717908948407E-02   1.426915959976135E-02
   1.441256703788961E-02   1.455741574473217E-02   1.470372020528042E-02
   1.485149505010236E-02   1.500075505680558E-02   1.515151515151515E-02
   1.530379041036618E-02   1.545759606101144E-02   1.561294748414419E-02
   1.576986021503620E-02   1.592834994509128E-02   1.608843252341455E-02
   1.625012395839722E-02   1.641344041931755E-02   1.657839823795773E-02
   1.674501391023708E-02   1.691330409786168E-02   1.708328562999056E-02
   1.725497550491853E-02   1.742839089177618E-02   1.760354913224672E-02
   1.778046774230016E-02   1.795916441394493E-02   1.813965701699712E-02
   1.832196360086744E-02   1.850610239636620E-02   1.869209181752643E-02
   1.887995046344518E-02   1.906969712014361E-02   1.926135076244553E-02
   1.945493055587487E-02   1.965045585857230E-02   1.984794622323101E-02
   2.004742139905206E-02   2.024890133371929E-02   2.045240617539400E-02
   2.065795627472998E-02   2.086557218690845E-02   2.107527467369364E-02
   2.128708470550899E-02   2.150102346353419E-02   2.171711234182333E-02
   2.193537294944433E-02   2.215582711263978E-02   2.237849687700975E-02
   2.260340450971622E-02   2.283057250170990E-02   2.306002356997930E-02
   2.329178065982244E-02   2.352586694714144E-02   2.376230584076012E-02
   2.400112098476490E-02   2.424233626086911E-02   2.448597579080142E-02
   2.473206393871787E-02   2.498062531363831E-02   2.523168477190736E-02
   2.548526741968009E-02   2.574139861543257E-02   2.600010397249788E-02
   2.626140936162722E-02   2.652534091357730E-02   2.679192502172327E-02
   2.706118834469808E-02   2.733315780905844E-02   2.760786061197740E-02
   2.788532422396419E-02   2.816557639161127E-02   2.844864514036886E-02
   2.873455877734776E-02   2.902334589414995E-02   2.931503536972775E-02
   2.960965637327181E-02   2.990723836712799E-02   3.020781110974366E-02
   3.051140465864362E-02   3.081804937343564E-02   3.112777591884680E-02
   3.144061526778975E-02   3.175659870446008E-02   3.207575782746477E-02
   3.239812455298209E-02   3.272373111795324E-02   3.305261008330606E-02
   3.338479433721119E-02   3.372031709837075E-02   3.405921191934049E-02
   3.440151268988495E-02   3.474725364036641E-02   3.509646934516805E-02
   3.544919472615137E-02   3.580546505614839E-02   3.616531596248908E-02
   3.652878343056381E-02   3.689590380742237E-02   3.726671380540834E-02
   3.764125050583056E-02   3.801955136267118E-02   3.840165420633113E-02
   3.878759724741319E-02   3.917741908054317E-02   3.957115868822909E-02
   3.996885544475991E-02   4.037054912014270E-02   4.077627988407974E-02
   4.118608830998553E-02   4.160001537904418E-02   4.201810248430753E-02
   4.244039143483450E-02   4.286692445987215E-02   4.329774421307827E-02
   4.373289377678727E-02   4.417241666631814E-02   4.461635683432612E-02
   4.506475867519795E-02   4.551766702949139E-02   4.597512718841931E-02
   4.643718489837886E-02   4.690388636552597E-02   4.737527826039633E-02
   4.785140772257226E-02   4.833232236539674E-02   4.881807028073484E-02
   4.930870004378288E-02   4.980426071792601E-02   5.030480185964471E-02
   5.081037352347010E-02   5.132102626698996E-02   5.183681115590417E-02
   5.235777976913146E-02   5.288398420396730E-02   5.341547708129366E-02
   5.395231155084120E-02   5.449454129650422E-02   5.504222054170928E-02
   5.559540405483707E-02   5.615414715470001E-02   5.671850571607369E-02
   5.728853617528456E-02   5.786429553585357E-02   5.844584137419656E-02
   5.903323184538201E-02   5.962652568894662E-02   6.022578223476896E-02
   6.083106140900309E-02   6.144242374007085E-02   6.205993036471480E-02
   6.268364303411200E-02   6.331362412004916E-02   6.394993662115986E-02
   6.459264416922458E-02   6.524181103553349E-02   6.589750213731430E-02
   6.655978304422362E-02   6.722871998490401E-02   6.790437985360703E-02
   6.858683021688260E-02   6.927613932033572E-02   6.997237609545118E-02
   7.067561016648682E-02   7.138591185743552E-02   7.210335219905843E-02
   7.282800293598757E-02   7.355993653390051E-02   7.429922618676699E-02
   7.504594582416838E-02   7.580017011869068E-02   7.656197449339200E-02
   7.733143512934439E-02   7.810862897325278E-02   7.889363374514925E-02
   7.968652794616514E-02   8.048739086638132E-02   8.129630259275718E-02
   8.211334401713945E-02   8.293859684435159E-02   8.377214360036377E-02
   8.461406764054633E-02   8.546445315800490E-02   8.632338519199989E-02
   8.719094963645047E-02   8.806723324852404E-02   8.895232365731211E-02
   8.984630937259307E-02   9.074927979368362E-02   9.166132521837803E-02
   9.258253685197898E-02   9.351300681641750E-02   9.445282815946542E-02
   9.540209486404025E-02   9.636090185760347E-02   9.732934502165348E-02
   9.830752120131390E-02   9.929552821501747E-02   1.002934648642891E-01
   1.013014309436253E-01   1.023195272504741E-01   1.033478555953144E-01
   1.043865188118377E-01   1.054356207672313E-01   1.064952663725652E-01
   1.075655615932824E-01   1.086466134597972E-01   1.097385300781972E-01
   1.108414206410541E-01   1.119553954383432E-01   1.130805658684726E-01
   1.142170444494230E-01   1.153649448299995E-01   1.165243818011970E-01
   1.176954713076784E-01   1.188783304593705E-01   1.200730775431741E-01
   1.212798320347932E-01   1.224987146106827E-01   1.237298471601159E-01
   1.249733527973736E-01   1.262293558740561E-01   1.274979819915172E-01
   1.287793580134262E-01   1.300736120784530E-01   1.313808736130827E-01
   1.327012733445581E-01   1.340349433139527E-01   1.353820168893749E-01
   1.367426287793050E-01   1.381169150460654E-01   1.395050131194281E-01
   1.409070618103574E-01   1.423232013248907E-01   1.437535732781595E-01
   1.451983207085512E-01   1.466575880920127E-01   1.481315213564985E-01
   1.496202678965635E-01   1.511239765881019E-01   1.526427978032362E-01
   1.541768834253536E-01   1.557263868642947E-01   1.572914630716946E-01
   1.588722685564783E-01   1.604689614005117E-01   1.620817012744100E-01
   1.637106494535040E-01   1.653559688339694E-01   1.670178239491152E-01
   1.686963809858380E-01   1.703918078012401E-01   1.721042739394160E-01
   1.738339506484065E-01   1.755810108973243E-01   1.773456293936495E-01
   1.791279826007026E-01   1.809282487552895E-01   1.827466078855261E-01
   1.845832418288405E-01   1.864383342501577E-01   1.883120706602657E-01
   1.902046384343670E-01   1.921162268308165E-01   1.940470270100461E-01
   1.959972320536831E-01   1.979670369838570E-01   1.999566387827024E-01
   2.019662364120571E-01   2.039960308333589E-01   2.060462250277412E-01
   2.081170240163324E-01   2.102086348807563E-01   2.123212667838427E-01
   2.144551309905425E-01   2.166104408890546E-01   2.187874120121649E-01
   2.209862620587998E-01   2.232072109157964E-01   2.254504806798917E-01
   2.277162956799305E-01   2.300048824993016E-01   2.323164699985940E-01
   2.346512893384839E-01   2.370095740028511E-01   2.393915598221272E-01
   2.417974849968791E-01   2.442275901216293E-01   2.466821182089158E-01
   2.491613147135918E-01   2.516654275573744E-01   2.541947071536345E-01
   2.567494064324397E-01   2.593297808658466E-01   2.619360884934490E-01
   2.645685899481815E-01   2.672275484823839E-01   2.699132299941244E-01
   2.726259030537928E-01   2.753658389309556E-01   2.781333116214837E-01