<UPF version="2.0.1">
  <PP_INFO>
    Generated using "atomic" code by A. Dal Corso  v.6.8
    Author: D.C.
    Generation date:  7Nov2024
    Pseudopotential type: USPP
    Element: Tm
    Functional: PBE
    Suggested minimum cutoff for wavefunctions:  41. Ry
    Suggested minimum cutoff for charge density: 164. Ry
    The Pseudo was generated with a Scalar-Relativistic Calculation
    L component and cutoff radius for Local Potential:  2   2.1000
    Pseudopotential contains additional information for GIPAW reconstruction.
    Valence configuration: 
    nl pn  l   occ       Rcut    Rcut US       E pseu
    4F  4  3 13.00      1.300      2.000    -0.224984
    5F  5  3  0.00      1.300      2.000     0.000360
    5P  2  1  6.00      1.300      1.800    -1.976086
    6P  3  1  0.00      1.300      1.800    -0.082188
    5S  1  0  2.00      1.300      1.600    -3.921644
    6S  2  0  2.00      1.300      1.600    -0.284552
    5D  3  2  0.00      4.217      4.638    -0.057625
    Generation configuration:
    4F  4  3 13.00      1.300      2.000    -0.227156
    5F  5  3  0.00      1.300      2.000     1.500000
    5P  2  1  6.00      1.300      1.800    -1.977147
    6P  3  1  0.00      1.300      1.800     0.500000
    5S  1  0  2.00      1.300      1.600    -3.922961
    6S  2  0  2.00      1.300      1.600    -0.284750
    5D  3  2  0.00      2.100      2.100    -0.057952
    Pseudization used: troullier-martins
    <PP_INPUTFILE>
@input
title = 'Tm'
prefix = 'tm'
verbosity = 'high'
zed = 69
dft = 'pbe'
rel = 1
iswitch = 3
beta = 0.2
xmin = -8.0, dx = 0.01
nld = 4, rlderiv = 3.4, eminld  = -5.0, emaxld  = 5.0, deld = 0.002
/
16
1S  1  0   2.0
2S  2  0   2.0
2P  2  1   6.0
3S  3  0   2.0
3P  3  1   6.0
3D  3  2  10.0
4S  4  0   2.0
4P  4  1   6.0
4D  4  2  10.0
5S  5  0   2.0
5P  5  1   6.0
5D  5  2   0.0
4F  4  3  13.0
6S  6  0   2.0
6P  6  1   0.0
5F  5  3   0.0
@inputp
pseudotype = 3
lloc = 2
rcloc = 2.1
tm = .true.
nlcc = .true.
new_core_ps = .true.
rcore = 1.1
file_core = 'tm.core'
file_pseudopw = 'Tm.pbe-rrkjus-semi-gipaw-dc.UPF'
lgipaw_reconstruction = .true.
!upf_v1_format = .true.
author = 'D.C.'
/
7
4F  4  3 13.0  0.00  1.30  2.00
5F  5  3  0.0  1.50  1.30  2.00
5P  2  1  6.0  0.00  1.30  1.80
6P  3  1  0.0  0.50  1.30  1.80
5S  1  0  2.0  0.00  1.30  1.60
6S  2  0  2.0  0.00  1.30  1.60
5D  3  2  0.0  0.00  2.10  2.10
@test
ecutmin = 20
ecutmax = 60
decut   = 5
/
7
4F  4  3 13.0  0.00  1.30  2.00
5F  5  3  0.0  1.50  1.30  2.00
5P  2  1  6.0  0.00  1.30  1.80
6P  3  1  0.0  0.50  1.30  1.80
5S  1  0  2.0  0.00  1.30  1.60
6S  2  0  2.0  0.00  1.30  1.60
5D  3  2  0.0  0.00  2.10  2.10
    </PP_INPUTFILE>
  </PP_INFO>
    <!-- END OF HUMAN READABLE SECTION -->
  <PP_HEADER generated="Generated using 'atomic' code by A. Dal Corso  v.6.8" author="D.C." date=" 7Nov2024" comment="" element="Tm" pseudo_type="USPP" relativistic="scalar" is_ultrasoft="true" is_paw="false" is_coulomb="false" has_so="false" has_wfc="false" has_gipaw="true" paw_as_gipaw="false" core_correction="true" functional="PBE" z_valence="23.0000000000000" total_psenergy="-442.411550849988" wfc_cutoff="40.9030308777690" rho_cutoff="163.612123511076" l_max="3" l_max_rho="6" l_local="2" mesh_size="1685" number_of_wfc="7" number_of_proj="6"/>
  <PP_MESH mesh="1685" dx="1.000000000000000E-002" xmin="-8.00000000000000" rmax="100.000000000000" zmesh="69.0000000000000">
    <PP_R>
   4.861777215978433E-06   4.910638889325017E-06   4.959991630652745E-06
   5.009840375276884E-06   5.060190108113427E-06   5.111045864177620E-06
   5.162412729087450E-06   5.214295839572218E-06   5.266700383986201E-06
   5.319631602827513E-06   5.373094789262148E-06   5.427095289653309E-06
   5.481638504096026E-06   5.536729886957199E-06   5.592374947421024E-06
   5.648579250039924E-06   5.705348415290990E-06   5.762688120138055E-06
   5.820604098599393E-06   5.879102142321113E-06   5.938188101156330E-06
   5.997867883750169E-06   6.058147458130622E-06   6.119032852305368E-06
   6.180530154864548E-06   6.242645515589674E-06   6.305385146068582E-06
   6.368755320316601E-06   6.432762375403971E-06   6.497412712089530E-06
   6.562712795460826E-06   6.628669155580613E-06   6.695288388139874E-06
   6.762577155117368E-06   6.830542185445875E-06   6.899190275685063E-06
   6.968528290701170E-06   7.038563164353467E-06   7.109301900187688E-06
   7.180751572136367E-06   7.252919325226244E-06   7.325812376292758E-06
   7.399438014701765E-06   7.473803603078461E-06   7.548916578043662E-06
   7.624784450957446E-06   7.701414808670333E-06   7.778815314281955E-06
   7.856993707907378E-06   7.935957807451103E-06   8.015715509388894E-06
   8.096274789557408E-06   8.177643703951795E-06   8.259830389531310E-06
   8.342843065032988E-06   8.426690031793559E-06   8.511379674579584E-06
   8.596920462425900E-06   8.683320949482582E-06   8.770589775870337E-06
   8.858735668544526E-06   8.947767442167884E-06   9.037693999991948E-06
   9.128524334747449E-06   9.220267529543554E-06   9.312932758776201E-06
   9.406529289045522E-06   9.501066480082548E-06   9.596553785685165E-06
   9.693000754663513E-06   9.790417031794845E-06   9.888812358788066E-06
   9.988196575257872E-06   1.008857961970873E-05   1.018997153052874E-05
   1.029238244699346E-05   1.039582261027990E-05   1.050030236449059E-05
   1.060583215768801E-05   1.071242254293941E-05   1.082008417937216E-05
   1.092882783323962E-05   1.103866437899779E-05   1.114960480039277E-05
   1.126166019155915E-05   1.137484175812944E-05   1.148916081835462E-05
   1.160462880423596E-05   1.172125726266828E-05   1.183905785659461E-05
   1.195804236617253E-05   1.207822268995212E-05   1.219961084606593E-05
   1.232221897343072E-05   1.244605933296141E-05   1.257114430879714E-05
   1.269748640953973E-05   1.282509826950456E-05   1.295399264998396E-05
   1.308418244052339E-05   1.321568066021038E-05   1.334850045897650E-05
   1.348265511891231E-05   1.361815805559560E-05   1.375502281943294E-05
   1.389326309701478E-05   1.403289271248410E-05   1.417392562891876E-05
   1.431637594972796E-05   1.446025792006249E-05   1.460558592823928E-05
   1.475237450718027E-05   1.490063833586565E-05   1.505039224080186E-05
   1.520165119750419E-05   1.535443033199435E-05   1.550874492231311E-05
   1.566461040004809E-05   1.582204235187697E-05   1.598105652112611E-05
   1.614166880934498E-05   1.630389527789619E-05   1.646775214956182E-05
   1.663325581016560E-05   1.680042281021147E-05   1.696926986653876E-05
   1.713981386399381E-05   1.731207185711848E-05   1.748606107185566E-05
   1.766179890727177E-05   1.783930293729683E-05   1.801859091248176E-05
   1.819968076177347E-05   1.838259059430781E-05   1.856733870122045E-05
   1.875394355747606E-05   1.894242382371576E-05   1.913279834812323E-05
   1.932508616830956E-05   1.951930651321702E-05   1.971547880504194E-05
   1.991362266117698E-05   2.011375789617288E-05   2.031590452371992E-05
   2.052008275864931E-05   2.072631301895470E-05   2.093461592783396E-05
   2.114501231575157E-05   2.135752322252168E-05   2.157216989941202E-05
   2.178897381126916E-05   2.200795663866498E-05   2.222914028006468E-05
   2.245254685401676E-05   2.267819870136473E-05   2.290611838748141E-05
   2.313632870452534E-05   2.336885267372005E-05   2.360371354765624E-05
   2.384093481261702E-05   2.408054019092658E-05   2.432255364332243E-05
   2.456699937135146E-05   2.481390181979018E-05   2.506328567908923E-05
   2.531517588784231E-05   2.556959763528022E-05   2.582657636378973E-05
   2.608613777145784E-05   2.634830781464161E-05   2.661311271056387E-05
   2.688057893993483E-05   2.715073324960034E-05   2.742360265521652E-05
   2.769921444395127E-05   2.797759617721318E-05   2.825877569340755E-05
   2.854278111072031E-05   2.882964082992990E-05   2.911938353724725E-05
   2.941203820718455E-05   2.970763410545271E-05   3.000620079188783E-05
   3.030776812340740E-05   3.061236625699586E-05   3.092002565272041E-05
   3.123077707677703E-05   3.154465160456704E-05   3.186168062380480E-05
   3.218189583765646E-05   3.250532926791019E-05   3.283201325817858E-05
   3.316198047713289E-05   3.349526392176999E-05   3.383189692071207E-05
   3.417191313753961E-05   3.451534657415755E-05   3.486223157419579E-05
   3.521260282644344E-05   3.556649536831764E-05   3.592394458936751E-05
   3.628498623481304E-05   3.664965640911965E-05   3.701799157960867E-05
   3.739002858010406E-05   3.776580461461592E-05   3.814535726106088E-05
   3.852872447501981E-05   3.891594459353363E-05   3.930705633893686E-05
   3.970209882272997E-05   4.010111154949055E-05   4.050413442082382E-05
   4.091120773935270E-05   4.132237221274832E-05   4.173766895780062E-05
   4.215713950453020E-05   4.258082580034131E-05   4.300877021421658E-05
   4.344101554095403E-05   4.387760500544660E-05   4.431858226700445E-05
   4.476399142372133E-05   4.521387701688398E-05   4.566828403542669E-05
   4.612725792042996E-05   4.659084456966478E-05   4.705909034218241E-05
   4.753204206295034E-05   4.800974702753467E-05   4.849225300683008E-05
   4.897960825183646E-05   4.947186149848450E-05   4.996906197250908E-05
   5.047125939437193E-05   5.097850398423375E-05   5.149084646697621E-05
   5.200833807727460E-05   5.253103056472110E-05   5.305897619900012E-05
   5.359222777511496E-05   5.413083861866764E-05   5.467486259119138E-05
   5.522435409553677E-05   5.577936808131216E-05   5.633996005037870E-05
   5.690618606240035E-05   5.747810274045026E-05   5.805576727667276E-05
   5.863923743800289E-05   5.922857157194300E-05   5.982382861239762E-05
   6.042506808556683E-05   6.103235011589906E-05   6.164573543210326E-05
   6.226528537322237E-05   6.289106189476665E-05   6.352312757490981E-05
   6.416154562074654E-05   6.480637987461351E-05   6.545769482047344E-05
   6.611555559036366E-05   6.678002797090945E-05   6.745117840990249E-05
   6.812907402294610E-05   6.881378260016635E-05   6.950537261299162E-05
   7.020391322099953E-05   7.090947427883299E-05   7.162212634318576E-05
   7.234194067985822E-05   7.306898927088376E-05   7.380334482172747E-05
   7.454508076855628E-05   7.529427128558306E-05   7.605099129248384E-05
   7.681531646188989E-05   7.758732322695512E-05   7.836708878899942E-05
   7.915469112522868E-05   7.995020899653300E-05   8.075372195536229E-05
   8.156531035368211E-05   8.238505535100863E-05   8.321303892252467E-05
   8.404934386727741E-05   8.489405381645822E-05   8.574725324176605E-05
   8.660902746385424E-05   8.747946266086334E-05   8.835864587703824E-05
   8.924666503143329E-05   9.014360892670395E-05   9.104956725798721E-05
   9.196463062187116E-05   9.288889052545483E-05   9.382243939549862E-05
   9.476537058766768E-05   9.571777839586682E-05   9.667975806167065E-05
   9.765140578384735E-05   9.863281872797889E-05   9.962409503617752E-05
   1.006253338369002E-04   1.016366352548612E-04   1.026581004210453E-04
   1.036898314828201E-04   1.047319316141516E-04   1.057845050259215E-04
   1.068476569763480E-04   1.079214937815122E-04   1.090061228259893E-04
   1.101016525735879E-04   1.112081925781955E-04   1.123258534947348E-04
   1.134547470902286E-04   1.145949862549774E-04   1.157466850138479E-04
   1.169099585376756E-04   1.180849231547823E-04   1.192716963626091E-04
   1.204703968394655E-04   1.216811444563982E-04   1.229040602891778E-04
   1.241392666304067E-04   1.253868870017483E-04   1.266470461662796E-04
   1.279198701409670E-04   1.292054862092689E-04   1.305040229338632E-04
   1.318156101695047E-04   1.331403790760097E-04   1.344784621313731E-04
   1.358299931450153E-04   1.371951072711641E-04   1.385739410223696E-04
   1.399666322831561E-04   1.413733203238102E-04   1.427941458143081E-04
   1.442292508383830E-04   1.456787789077331E-04   1.471428749763734E-04
   1.486216854551308E-04   1.501153582262854E-04   1.516240426583593E-04
   1.531478896210530E-04   1.546870515003322E-04   1.562416822136680E-04
   1.578119372254268E-04   1.593979735624186E-04   1.609999498295986E-04
   1.626180262259287E-04   1.642523645603969E-04   1.659031282681987E-04
   1.675704824270802E-04   1.692545937738472E-04   1.709556307210373E-04
   1.726737633737630E-04   1.744091635467214E-04   1.761620047813759E-04
   1.779324623633107E-04   1.797207133397594E-04   1.815269365373099E-04
   1.833513125797870E-04   1.851940239063156E-04   1.870552547895634E-04
   1.889351913541701E-04   1.908340215953587E-04   1.927519353977358E-04
   1.946891245542797E-04   1.966457827855208E-04   1.986221057589123E-04
   2.006182911083987E-04   2.026345384541784E-04   2.046710494226661E-04
   2.067280276666559E-04   2.088056788856862E-04   2.109042108466105E-04
   2.130238334043737E-04   2.151647585229976E-04   2.173272002967785E-04
   2.195113749716955E-04   2.217175009670365E-04   2.239457988972393E-04
   2.261964915939541E-04   2.284698041283259E-04   2.307659638335027E-04
   2.330852003273686E-04   2.354277455355054E-04   2.377938337143864E-04
   2.401837014748008E-04   2.425975878055164E-04   2.450357340971780E-04
   2.474983841664463E-04   2.499857842803806E-04   2.524981831810654E-04
   2.550358321104840E-04   2.575989848356443E-04   2.601878976739546E-04
   2.628028295188562E-04   2.654440418657127E-04   2.681117988379601E-04
   2.708063672135186E-04   2.735280164514709E-04   2.762770187190092E-04
   2.790536489186510E-04   2.818581847157305E-04   2.846909065661638E-04
   2.875520977444969E-04   2.904420443722321E-04   2.933610354464403E-04
   2.963093628686618E-04   2.992873214740951E-04   3.022952090610829E-04
   3.053333264208902E-04   3.084019773677852E-04   3.115014687694192E-04
   3.146321105775155E-04   3.177942158588639E-04   3.209881008266279E-04
   3.242140848719652E-04   3.274724905959691E-04   3.307636438419271E-04
   3.340878737279070E-04   3.374455126796668E-04   3.408368964639001E-04
   3.442623642218115E-04   3.477222585030317E-04   3.512169252998713E-04
   3.547467140819227E-04   3.583119778310056E-04   3.619130730764662E-04
   3.655503599308293E-04   3.692242021258118E-04   3.729349670486948E-04
   3.766830257790631E-04   3.804687531259126E-04   3.842925276651330E-04
   3.881547317773649E-04   3.920557516862377E-04   3.959959774969938E-04
   3.999758032354969E-04   4.039956268876379E-04   4.080558504391318E-04
   4.121568799157177E-04   4.162991254237599E-04   4.204830011912616E-04
   4.247089256092861E-04   4.289773212737973E-04   4.332886150279177E-04
   4.376432380046159E-04   4.420416256698186E-04   4.464842178659578E-04
   4.509714588559547E-04   4.555037973676480E-04   4.600816866386658E-04
   4.647055844617505E-04   4.693759532305370E-04   4.740932599857945E-04
   4.788579764621294E-04   4.836705791351609E-04   4.885315492691655E-04
   4.934413729652079E-04   4.984005412097494E-04   5.034095499237471E-04
   5.084689000122469E-04   5.135790974144731E-04   5.187406531544246E-04
   5.239540833919770E-04   5.292199094744988E-04   5.345386579889858E-04
   5.399108608147219E-04   5.453370551764667E-04   5.508177836981787E-04
   5.563535944572765E-04   5.619450410394494E-04   5.675926825940154E-04
   5.732970838898369E-04   5.790588153717959E-04   5.848784532178428E-04
   5.907565793966117E-04   5.966937817256196E-04   6.026906539300461E-04
   6.087477957021094E-04   6.148658127610346E-04   6.210453169136261E-04
   6.272869261154480E-04   6.335912645326223E-04   6.399589626042444E-04
   6.463906571054277E-04   6.528869912109830E-04   6.594486145597329E-04
   6.660761833194813E-04   6.727703602526268E-04   6.795318147824421E-04
   6.863612230600134E-04   6.932592680318604E-04   7.002266395082286E-04
   7.072640342320722E-04   7.143721559487271E-04   7.215517154762891E-04
   7.288034307766937E-04   7.361280270275148E-04   7.435262366944802E-04
   7.509987996047222E-04   7.585464630207591E-04   7.661699817152230E-04
   7.738701180463348E-04   7.816476420341451E-04   7.895033314375342E-04
   7.974379718319892E-04   8.054523566881607E-04   8.135472874512134E-04
   8.217235736209696E-04   8.299820328328599E-04   8.383234909396882E-04
   8.467487820942149E-04   8.552587488325775E-04   8.638542421585411E-04
   8.725361216286025E-04   8.813052554379416E-04   8.901625205072482E-04
   8.991088025704100E-04   9.081449962630895E-04   9.172720052121845E-04
   9.264907421261966E-04   9.358021288864996E-04   9.452070966395297E-04
   9.547065858898982E-04   9.643015465944472E-04   9.739929382572429E-04
   9.837817300255285E-04   9.936689007866368E-04   1.003655439265884E-03
   1.013742344125440E-03   1.023930624064197E-03   1.034221297918639E-03
   1.044615394764726E-03   1.055113954020806E-03   1.065718025551552E-03
   1.076428669772955E-03   1.087246957758362E-03   1.098173971345587E-03
   1.109210803245094E-03   1.120358557149272E-03   1.131618347842800E-03
   1.142991301314130E-03   1.154478554868087E-03   1.166081257239601E-03
   1.177800568708575E-03   1.189637661215925E-03   1.201593718480763E-03
   1.213669936118782E-03   1.225867521761808E-03   1.238187695178569E-03
   1.250631688396674E-03   1.263200745825817E-03   1.275896124382211E-03
   1.288719093614295E-03   1.301670935829676E-03   1.314752946223370E-03
   1.327966433007317E-03   1.341312717541207E-03   1.354793134464615E-03
   1.368409031830468E-03   1.382161771239850E-03   1.396052727978160E-03
   1.410083291152649E-03   1.424254863831326E-03   1.438568863183271E-03
   1.453026720620344E-03   1.467629881940339E-03   1.482379807471557E-03
   1.497277972218844E-03   1.512325866011087E-03   1.527524993650208E-03
   1.542876875061635E-03   1.558383045446304E-03   1.574045055434174E-03
   1.589864471239296E-03   1.605842874816433E-03   1.621981864019260E-03
   1.638283052760143E-03   1.654748071171543E-03   1.671378565769022E-03
   1.688176199615899E-03   1.705142652489554E-03   1.722279621049415E-03
   1.739588819006619E-03   1.757071977295386E-03   1.774730844246115E-03
   1.792567185760215E-03   1.810582785486702E-03   1.828779445000561E-03
   1.847158983982910E-03   1.865723240402960E-03   1.884474070701825E-03
   1.903413349978160E-03   1.922542972175678E-03   1.941864850272536E-03
   1.961380916472648E-03   1.981093122398896E-03   2.001003439288303E-03
   2.021113858189144E-03   2.041426390160072E-03   2.061943066471211E-03
   2.082665938807290E-03   2.103597079472808E-03   2.124738581599278E-03
   2.146092559354528E-03   2.167661148154133E-03   2.189446504874940E-03
   2.211450808070781E-03   2.233676258190310E-03   2.256125077797064E-03
   2.278799511791705E-03   2.301701827636532E-03   2.324834315582214E-03
   2.348199288896822E-03   2.371799084097161E-03   2.395636061182414E-03
   2.419712603870155E-03   2.444031119834717E-03   2.468594040947964E-03
   2.493403823522472E-03   2.518462948557176E-03   2.543773921985462E-03
   2.569339274925767E-03   2.595161563934685E-03   2.621243371262639E-03
   2.647587305112096E-03   2.674195999898396E-03   2.701072116513189E-03
   2.728218342590533E-03   2.755637392775659E-03   2.783332008996438E-03
   2.811304960737565E-03   2.839559045317527E-03   2.868097088168328E-03
   2.896921943118038E-03   2.926036492676166E-03   2.955443648321934E-03
   2.985146350795412E-03   3.015147570391600E-03   3.045450307257461E-03
   3.076057591691929E-03   3.106972484448956E-03   3.138198077043580E-03
   3.169737492061085E-03   3.201593883469250E-03   3.233770436933766E-03
   3.266270370136792E-03   3.299096933098737E-03   3.332253408503245E-03
   3.365743112025490E-03   3.399569392663734E-03   3.433735633074230E-03
   3.468245249909487E-03   3.503101694159948E-03   3.538308451499088E-03
   3.573869042631980E-03   3.609787023647366E-03   3.646065986373283E-03
   3.682709558736236E-03   3.719721405124001E-03   3.757105226752053E-03
   3.794864762033711E-03   3.833003786953970E-03   3.871526115447106E-03
   3.910435599778072E-03   3.949736130927720E-03   3.989431638981918E-03
   4.029526093524552E-03   4.070023504034491E-03   4.110927920286528E-03
   4.152243432756378E-03   4.193974173029719E-03   4.236124314215356E-03
   4.278698071362525E-03   4.321699701882425E-03   4.365133505973943E-03
   4.409003827053684E-03   4.453315052190309E-03   4.498071612543261E-03
   4.543277983805874E-03   4.588938686652948E-03   4.635058287192811E-03
   4.681641397423956E-03   4.728692675696224E-03   4.776216827176655E-03
   4.824218604319995E-03   4.872702807343962E-03   4.921674284709262E-03
   4.971137933604443E-03   5.021098700435617E-03   5.071561581321093E-03
   5.122531622591017E-03   5.174013921291990E-03   5.226013625696789E-03
   5.278535935819179E-03   5.331586103933947E-03   5.385169435102110E-03
   5.439291287701446E-03   5.493957073962303E-03   5.549172260508870E-03
   5.604942368905813E-03   5.661272976210454E-03   5.718169715530453E-03
   5.775638276587163E-03   5.833684406284578E-03   5.892313909284048E-03
   5.951532648584719E-03   6.011346546109876E-03   6.071761583299115E-03
   6.132783801706508E-03   6.194419303604736E-03   6.256674252595358E-03
   6.319554874225153E-03   6.383067456608683E-03   6.447218351057121E-03
   6.512013972713357E-03   6.577460801193563E-03   6.643565381235122E-03
   6.710334323351135E-03   6.777774304491440E-03   6.845892068710358E-03
   6.914694427841077E-03   6.984188262176850E-03   7.054380521159012E-03
   7.125278224071958E-03   7.196888460745064E-03   7.269218392261678E-03
   7.342275251675214E-03   7.416066344732501E-03   7.490599050604336E-03
   7.565880822623426E-03   7.641919189029693E-03   7.718721753723149E-03
   7.796296197024268E-03   7.874650276442031E-03   7.953791827449661E-03
   8.033728764268219E-03   8.114469080658000E-03   8.196020850717927E-03
   8.278392229692972E-03   8.361591454789662E-03   8.445626845999850E-03
   8.530506806932682E-03   8.616239825654994E-03   8.702834475540090E-03
   8.790299416125122E-03   8.878643393977042E-03   8.967875243567264E-03
   9.058003888155086E-03   9.149038340680087E-03   9.240987704663381E-03
   9.333861175117995E-03   9.427668039468359E-03   9.522417678479085E-03
   9.618119567193033E-03   9.714783275878835E-03   9.812418470987896E-03
   9.911034916121100E-03   1.001064247300514E-02   1.011125110247872E-02
   1.021287086548860E-02   1.031551192409579E-02   1.041918454249168E-02
   1.052389908802450E-02   1.062966603223608E-02   1.073649595190896E-02
   1.084439953012413E-02   1.095338755732935E-02   1.106347093241817E-02
   1.117466066381980E-02   1.128696787060007E-02   1.140040378357324E-02
   1.151497974642514E-02   1.163070721684752E-02   1.174759776768387E-02
   1.186566308808669E-02   1.198491498468642E-02   1.210536538277206E-02
   1.222702632748382E-02   1.234990998501755E-02   1.247402864384142E-02
   1.259939471592473E-02   1.272602073797915E-02   1.285391937271243E-02
   1.298310341009462E-02   1.311358576863710E-02   1.324537949668447E-02
   1.337849777371936E-02   1.351295391168042E-02   1.364876135629346E-02
   1.378593368841615E-02   1.392448462539599E-02   1.406442802244214E-02
   1.420577787401095E-02   1.434854831520534E-02   1.449275362318841E-02
   1.463840821861113E-02   1.478552666705443E-02   1.493412368048574E-02
   1.508421411873028E-02   1.523581299095688E-02   1.538893545717913E-02
   1.554359682977126E-02   1.569981257499940E-02   1.585759831456826E-02
   1.601696982718329E-02   1.617794305012856E-02   1.634053408086053E-02
   1.650475917861772E-02   1.667063476604678E-02   1.683817743084469E-02
   1.700740392741754E-02   1.717833117855602E-02   1.735097627712768E-02
   1.752535648778624E-02   1.770148924869810E-02   1.787939217328615E-02
   1.805908305199104E-02   1.824057985405041E-02   1.842390072929572E-02
   1.860906400996727E-02   1.879608821254741E-02   1.898499203961227E-02
   1.917579438170197E-02   1.936851431920976E-02   1.956317112428991E-02
   1.975978426278520E-02   1.995837339617330E-02   2.015895838353305E-02
   2.036155928353034E-02   2.056619635642401E-02   2.077289006609188E-02
   2.098166108207719E-02   2.119253028165544E-02   2.140551875192237E-02
   2.162064779190247E-02   2.183793891467904E-02   2.205741384954541E-02
   2.227909454417799E-02   2.250300316683095E-02   2.272916210855315E-02
   2.295759398542729E-02   2.318832164083132E-02   2.342136814772310E-02
   2.365675681094753E-02   2.389451116956708E-02   2.413465499921574E-02
   2.437721231447660E-02   2.462220737128333E-02   2.486966466934580E-02
   2.511960895459995E-02   2.537206522168264E-02   2.562705871643095E-02
   2.588461493840686E-02   2.614475964344720E-02   2.640751884623925E-02
   2.667291882292227E-02   2.694098611371513E-02   2.721174752557021E-02
   2.748523013485438E-02   2.776146129005647E-02   2.804046861452220E-02
   2.832228000921651E-02   2.860692365551373E-02   2.889442801801567E-02
   2.918482184739825E-02   2.947813418328626E-02   2.977439435715781E-02
   3.007363199527716E-02   3.037587702165747E-02   3.068115966105326E-02
   3.098951044198287E-02   3.130096019978137E-02   3.161554007968406E-02
   3.193328153994114E-02   3.225421635496332E-02   3.257837661849960E-02
   3.290579474684648E-02   3.323650348208961E-02   3.357053589537814E-02
   3.390792539023174E-02   3.424870570588107E-02   3.459291092064173E-02
   3.494057545532191E-02   3.529173407666487E-02   3.564642190082537E-02
   3.600467439688140E-02   3.636652739038113E-02   3.673201706692542E-02
   3.710117997578653E-02   3.747405303356303E-02   3.785067352787130E-02
   3.823107912107470E-02   3.861530785404954E-02   3.900339814998932E-02
   3.939538881824703E-02   3.979131905821617E-02   4.019122846325068E-02
   4.059515702462431E-02   4.100314513552988E-02   4.141523359511834E-02
   4.183146361257913E-02   4.225187681126083E-02   4.267651523283368E-02
   4.310542134149369E-02   4.353863802820916E-02   4.397620861500977E-02
   4.441817685931891E-02   4.486458695832919E-02   4.531548355342258E-02
   4.577091173463433E-02   4.623091704516210E-02   4.669554548592028E-02
   4.716484352014014E-02   4.763885807801618E-02   4.811763656139929E-02
   4.860122684853662E-02   4.908967729885996E-02   4.958303675782138E-02
   5.008135456177792E-02   5.058468054292524E-02   5.109306503428089E-02
   5.160655887471767E-02   5.212521341404752E-02   5.264908051815671E-02
   5.317821257419198E-02   5.371266249580001E-02   5.425248372841831E-02
   5.479773025462002E-02   5.534845659951210E-02   5.590471783618801E-02
   5.646656959123496E-02   5.703406805029677E-02   5.760726996369205E-02
   5.818623265208991E-02   5.877101401224168E-02   5.936167252277067E-02
   5.995826725002017E-02   6.056085785396008E-02   6.116950459415291E-02
   6.178426833578003E-02   6.240521055572768E-02   6.303239334873542E-02
   6.366587943360520E-02   6.430573215947341E-02   6.495201551214587E-02
   6.560479412049640E-02   6.626413326292982E-02   6.693009887390983E-02
   6.760275755055262E-02   6.828217655928616E-02   6.896842384257763E-02
   6.966156802572725E-02   7.036167842373092E-02   7.106882504821189E-02
   7.178307861442193E-02   7.250451054831283E-02   7.323319299367931E-02
   7.396919881937290E-02   7.471260162658962E-02   7.546347575622972E-02
   7.622189629633187E-02   7.698793908958212E-02   7.776168074089816E-02
   7.854319862508991E-02   7.933257089459718E-02   8.012987648730448E-02
   8.093519513443562E-02   8.174860736852642E-02   8.257019453147815E-02
   8.340003878269175E-02   8.423822310728388E-02   8.508483132438549E-02
   8.593994809552380E-02   8.680365893308868E-02   8.767605020888333E-02
   8.855720916276251E-02   8.944722391135587E-02   9.034618345687996E-02
   9.125417769603850E-02   9.217129742901202E-02   9.309763436853812E-02
   9.403328114908287E-02   9.497833133610367E-02   9.593287943540697E-02
   9.689702090259815E-02   9.787085215262735E-02   9.885447056943115E-02
   9.984797451567089E-02   1.008514633425691E-01   1.018650373998449E-01
   1.028887980457484E-01   1.039228476571974E-01   1.049672896400147E-01
   1.060222284392691E-01   1.070877695497196E-01   1.081640195263651E-01
   1.092510859951003E-01   1.103490776634778E-01   1.114581043315798E-01
   1.125782769029968E-01   1.137097073959196E-01   1.148525089543404E-01
   1.160067958593674E-01   1.171726835406530E-01   1.183502885879369E-01
   1.195397287627052E-01   1.207411230099667E-01   1.219545914701469E-01
   1.231802554911033E-01   1.244182376402594E-01   1.256686617168617E-01
   1.269316527643599E-01   1.282073370829113E-01   1.294958422420108E-01
   1.307972970932483E-01   1.321118317831930E-01   1.334395777664095E-01
   1.347806678186027E-01   1.361352360498954E-01   1.375034179182395E-01
   1.388853502429620E-01   1.402811712184469E-01   1.416910204279551E-01
   1.431150388575825E-01   1.445533689103584E-01   1.460061544204868E-01
   1.474735406677295E-01   1.489556743919340E-01   1.504527038077079E-01
   1.519647786192402E-01   1.534920500352721E-01   1.550346707842183E-01
   1.565927951294386E-01   1.581665788846664E-01   1.597561794295885E-01
   1.613617557255841E-01   1.629834683316209E-01   1.646214794203109E-01
   1.662759527941279E-01   1.679470539017884E-01   1.696349498547951E-01
   1.713398094441503E-01   1.730618031572335E-01   1.748011031948510E-01
   1.765578834884561E-01   1.783323197175422E-01   1.801245893272107E-01
   1.819348715459163E-01   1.837633474033897E-01   1.856101997487397E-01
   1.874756132687403E-01   1.893597745062980E-01   1.912628718791066E-01
   1.931850956984894E-01   1.951266381884302E-01   1.970876935047959E-01
   1.990684577547527E-01   2.010691290163756E-01   2.030899073584583E-01
   2.051309948605189E-01   2.071925956330087E-01   2.092749158377229E-01
   2.113781637084172E-01   2.135025495716314E-01   2.156482858677224E-01
   2.178155871721075E-01   2.200046702167233E-01   2.222157539116986E-01
   2.244490593672455E-01   2.267048099157706E-01   2.289832311342086E-01
   2.312845508665800E-01   2.336089992467759E-01   2.359568087215716E-01
   2.383282140738705E-01   2.407234524461841E-01   2.431427633643461E-01
   2.455863887614640E-01   2.480545730021141E-01   2.505475629067773E-01
   2.530656077765214E-01   2.556089594179324E-01   2.581778721682929E-01
   2.607726029210192E-01   2.633934111513488E-01   2.660405589422888E-01