<UPF version="2.0.1">
  <PP_INFO>
    Generated using "atomic" code by A. Dal Corso  v.6.8
    Author: D.C.
    Generation date: 25Oct2024
    Pseudopotential type: USPP
    Element: Sm
    Functional: PBE
    Suggested minimum cutoff for wavefunctions:  74. Ry
    Suggested minimum cutoff for charge density: 295. Ry
    The Pseudo was generated with a Scalar-Relativistic Calculation
    L component and cutoff radius for Local Potential:  2   2.1000
    Pseudopotential contains additional information for GIPAW reconstruction.
    Valence configuration: 
    nl pn  l   occ       Rcut    Rcut US       E pseu
    4F  4  3  6.00      1.300      1.900    -0.181574
    5F  5  3  0.00      1.300      1.900     0.000355
    5P  2  1  6.00      1.300      1.800    -1.707418
    6P  3  1  0.00      1.300      1.800    -0.088794
    5S  1  0  2.00      1.300      1.600    -3.180211
    6S  2  0  2.00      1.300      1.600    -0.263294
    5D  3  2  0.00      4.332      4.765    -0.123622
    Generation configuration:
    4F  4  3  6.00      1.300      1.900    -0.181542
    5F  5  3  0.00      1.300      1.900     0.500000
    5P  2  1  6.00      1.300      1.800    -1.707397
    6P  3  1  0.00      1.300      1.800     0.500000
    5S  1  0  2.00      1.300      1.600    -3.180190
    6S  2  0  2.00      1.300      1.600    -0.263292
    5D  3  2  0.00      2.100      2.100    -0.123618
    Pseudization used: troullier-martins
    <PP_INPUTFILE>
@input
title = 'Sm'
prefix = 'sm'
verbosity = 'high'
zed = 62
dft = 'pbe'
rel = 1
iswitch = 3
beta = 0.2
xmin = -8.0, dx = 0.01
nld = 4, rlderiv = 3.4, eminld  = -5.0, emaxld  = 5.0, deld = 0.002
/
16
1S  1  0   2.0
2S  2  0   2.0
2P  2  1   6.0
3S  3  0   2.0
3P  3  1   6.0
3D  3  2  10.0
4S  4  0   2.0
4P  4  1   6.0
4D  4  2  10.0
5S  5  0   2.0
5P  5  1   6.0
5D  5  2   0.0
4F  4  3   6.0
6S  6  0   2.0
6P  6  1   0.0
5F  5  3   0.0
@inputp
pseudotype = 3
lloc = 2
rcloc = 2.1
tm = .true.
nlcc = .true.
new_core_ps = .true.
rcore = 1.3
file_core = 'sm.core'
file_pseudopw = 'Sm.pbe-rrkjus-semi-gipaw-dc.UPF'
lgipaw_reconstruction = .true.
!upf_v1_format = .true.
author = 'D.C.'
/
7
4F  4  3  6.0  0.00  1.30  1.90
5F  5  3  0.0  0.50  1.30  1.90
5P  2  1  6.0  0.00  1.30  1.80
6P  3  1  0.0  0.50  1.30  1.80
5S  1  0  2.0  0.00  1.30  1.60
6S  2  0  2.0  0.00  1.30  1.60
5D  3  2  0.0  0.00  2.10  2.10
@test
ecutmin = 20
ecutmax = 60
decut   = 5
/
7
4F  4  3  6.0  0.00  1.30  1.90
5F  5  3  0.0  0.50  1.30  1.90
5P  2  1  6.0  0.00  1.30  1.80
6P  3  1  0.0  0.50  1.30  1.80
5S  1  0  2.0  0.00  1.30  1.60
6S  2  0  2.0  0.00  1.30  1.60
5D  3  2  0.0  0.00  2.10  2.10
    </PP_INPUTFILE>
  </PP_INFO>
    <!-- END OF HUMAN READABLE SECTION -->
  <PP_HEADER generated="Generated using 'atomic' code by A. Dal Corso  v.6.8" author="D.C." date="25Oct2024" comment="" element="Sm" pseudo_type="USPP" relativistic="scalar" is_ultrasoft="true" is_paw="false" is_coulomb="false" has_so="false" has_wfc="false" has_gipaw="true" paw_as_gipaw="false" core_correction="true" functional="PBE" z_valence="16.0000000000000" total_psenergy="-178.525710168305" wfc_cutoff="73.6571153556430" rho_cutoff="294.628461422572" l_max="3" l_max_rho="6" l_local="2" mesh_size="1675" number_of_wfc="7" number_of_proj="6"/>
  <PP_MESH mesh="1675" dx="1.000000000000000E-002" xmin="-8.00000000000000" rmax="100.000000000000" zmesh="62.0000000000000">
    <PP_R>
   5.410687546814708E-06   5.465065860700422E-06   5.519990685726441E-06
   5.575467514421047E-06   5.631501894513330E-06   5.688099429487996E-06
   5.745265779145710E-06   5.803006660169082E-06   5.861327846694319E-06
   5.920235170888683E-06   5.979734523533681E-06   6.039831854614167E-06
   6.100533173913319E-06   6.161844551613656E-06   6.223772118904043E-06
   6.286322068592819E-06   6.349500655727069E-06   6.413314198218159E-06
   6.477769077473517E-06   6.542871739034787E-06   6.608628693222368E-06
   6.675046515786478E-06   6.742131848564725E-06   6.809891400146296E-06
   6.878331946542804E-06   6.947460331865928E-06   7.017283469011808E-06
   7.087808340352347E-06   7.159041998433452E-06   7.230991566680283E-06
   7.303664240109628E-06   7.377067286049392E-06   7.451208044865343E-06
   7.526093930695136E-06   7.601732432189764E-06   7.678131113262408E-06
   7.755297613844850E-06   7.833239650651440E-06   7.911965017950814E-06
   7.991481588345312E-06   8.071797313558239E-06   8.152920225229036E-06
   8.234858435716480E-06   8.317620138909900E-06   8.401213611048591E-06
   8.485647211549415E-06   8.570929383842789E-06   8.657068656217014E-06
   8.744073642671113E-06   8.831953043776227E-06   8.920715647545704E-06
   9.010370330313888E-06   9.100926057623771E-06   9.192391885123555E-06
   9.284776959472196E-06   9.378090519254123E-06   9.472341895903085E-06
   9.567540514635274E-06   9.663695895391905E-06   9.760817653791181E-06
   9.858915502089876E-06   9.957999250154580E-06   1.005807880644265E-05
   1.015916417899313E-05   1.026126547642750E-05   1.036439290896061E-05
   1.046855678942163E-05   1.057376753428542E-05   1.068003566471414E-05
   1.078737180760939E-05   1.089578669667491E-05   1.100529117348995E-05
   1.111589618859344E-05   1.122761280257907E-05   1.134045218720134E-05
   1.145442562649273E-05   1.156954451789215E-05   1.168582037338469E-05
   1.180326482065279E-05   1.192188960423903E-05   1.204170658672063E-05
   1.216272774989571E-05   1.228496519598141E-05   1.240843114882421E-05
   1.253313795512228E-05   1.265909808566019E-05   1.278632413655595E-05
   1.291482883052067E-05   1.304462501813083E-05   1.317572567911336E-05
   1.330814392364362E-05   1.344189299365639E-05   1.357698626417015E-05
   1.371343724462451E-05   1.385125958023125E-05   1.399046705333875E-05
   1.413107358481035E-05   1.427309323541636E-05   1.441654020724022E-05
   1.456142884509861E-05   1.470777363797607E-05   1.485558922047385E-05
   1.500489037427337E-05   1.515569202961445E-05   1.530800926678827E-05
   1.546185731764548E-05   1.561725156711940E-05   1.577420755476443E-05
   1.593274097631015E-05   1.609286768523084E-05   1.625460369433081E-05
   1.641796517734579E-05   1.658296847056016E-05   1.674963007444078E-05
   1.691796665528692E-05   1.708799504689694E-05   1.725973225225168E-05
   1.743319544521481E-05   1.760840197225018E-05   1.778536935415648E-05
   1.796411528781941E-05   1.814465764798125E-05   1.832701448902848E-05
   1.851120404679720E-05   1.869724474039663E-05   1.888515517405120E-05
   1.907495413896085E-05   1.926666061518025E-05   1.946029377351678E-05
   1.965587297744762E-05   1.985341778505614E-05   2.005294795098777E-05
   2.025448342842531E-05   2.045804437108450E-05   2.066365113522922E-05
   2.087132428170723E-05   2.108108457800625E-05   2.129295300033069E-05
   2.150695073569935E-05   2.172309918406411E-05   2.194141996044990E-05
   2.216193489711632E-05   2.238466604574079E-05   2.260963567962378E-05
   2.283686629591616E-05   2.306638061786894E-05   2.329820159710553E-05
   2.353235241591707E-05   2.376885648958058E-05   2.400773746870048E-05
   2.424901924157375E-05   2.449272593657877E-05   2.473888192458811E-05
   2.498751182140575E-05   2.523864049022849E-05   2.549229304413253E-05
   2.574849484858466E-05   2.600727152397877E-05   2.626864894819808E-05
   2.653265325920282E-05   2.679931085764409E-05   2.706864840950400E-05
   2.734069284876211E-05   2.761547138008908E-05   2.789301148156705E-05
   2.817334090743741E-05   2.845648769087638E-05   2.874248014679825E-05
   2.903134687468695E-05   2.932311676145599E-05   2.961781898433721E-05
   2.991548301379844E-05   3.021613861649070E-05   3.051981585822483E-05
   3.082654510697803E-05   3.113635703593080E-05   3.144928262653421E-05
   3.176535317160809E-05   3.208460027847038E-05   3.240705587209774E-05
   3.273275219831829E-05   3.306172182703608E-05   3.339399765548807E-05
   3.372961291153403E-05   3.406860115697926E-05   3.441099629093077E-05
   3.475683255318734E-05   3.510614452766331E-05   3.545896714584728E-05
   3.581533569029509E-05   3.617528579815812E-05   3.653885346474713E-05
   3.690607504713176E-05   3.727698726777628E-05   3.765162721821183E-05
   3.803003236274569E-05   3.841224054220759E-05   3.879828997773402E-05
   3.918821927459028E-05   3.958206742603092E-05   3.997987381719933E-05
   4.038167822906613E-05   4.078752084240735E-05   4.119744224182255E-05
   4.161148341979322E-05   4.202968578078223E-05   4.245209114537420E-05
   4.287874175445753E-05   4.330968027344872E-05   4.374494979655876E-05
   4.418459385110271E-05   4.462865640185239E-05   4.507718185543296E-05
   4.553021506476349E-05   4.598780133354249E-05   4.644998642077811E-05
   4.691681654536426E-05   4.738833839070242E-05   4.786459910937007E-05
   4.834564632783594E-05   4.883152815122283E-05   4.932229316811786E-05
   4.981799045543180E-05   5.031866958330636E-05   5.082438062007163E-05
   5.133517413725269E-05   5.185110121462693E-05   5.237221344533204E-05
   5.289856294102537E-05   5.343020233709504E-05   5.396718479792379E-05
   5.450956402220509E-05   5.505739424831339E-05   5.561073025972785E-05
   5.616962739051070E-05   5.673414153084078E-05   5.730432913260255E-05
   5.788024721503141E-05   5.846195337041542E-05   5.904950576985498E-05
   5.964296316907955E-05   6.024238491432366E-05   6.084783094826137E-05
   6.145936181600060E-05   6.207703867113774E-05   6.270092328187307E-05
   6.333107803718749E-05   6.396756595308174E-05   6.461045067887774E-05
   6.525979650358385E-05   6.591566836232365E-05   6.657813184282961E-05
   6.724725319200180E-05   6.792309932253283E-05   6.860573781959879E-05
   6.929523694761843E-05   6.999166565707902E-05   7.069509359143187E-05
   7.140559109405663E-05   7.212322921529567E-05   7.284807971955914E-05
   7.358021509250148E-05   7.431970854827019E-05   7.506663403682696E-05
   7.582106625134323E-05   7.658308063566899E-05   7.735275339187776E-05
   7.813016148788657E-05   7.891538266515283E-05   7.970849544644867E-05
   8.050957914371318E-05   8.131871386598353E-05   8.213598052740638E-05
   8.296146085532876E-05   8.379523739847147E-05   8.463739353518362E-05
   8.548801348178068E-05   8.634718230096617E-05   8.721498591033807E-05
   8.809151109098031E-05   8.897684549614156E-05   8.987107765999997E-05
   9.077429700651718E-05   9.168659385838056E-05   9.260805944603552E-05
   9.353878591680873E-05   9.447886634412286E-05   9.542839473680415E-05
   9.638746604848295E-05   9.735617618708984E-05   9.833462202444577E-05
   9.932290140594996E-05   1.003211131603641E-04   1.013293571096954E-04
   1.023477340791792E-04   1.033763459073610E-04   1.044152954562807E-04
   1.054646866217592E-04   1.065246243437873E-04   1.075952146170206E-04
   1.086765645013785E-04   1.097687821327507E-04   1.108719767338105E-04
   1.119862586249373E-04   1.131117392352488E-04   1.142485311137440E-04
   1.153967479405578E-04   1.165565045383300E-04   1.177279168836868E-04
   1.189111021188389E-04   1.201061785632958E-04   1.213132657256978E-04
   1.225324843157672E-04   1.237639562563789E-04   1.250078046957532E-04
   1.262641540197706E-04   1.275331298644103E-04   1.288148591283145E-04
   1.301094699854776E-04   1.314170918980642E-04   1.327378556293553E-04
   1.340718932568245E-04   1.354193381853464E-04   1.367803251605366E-04
   1.381549902822268E-04   1.395434710180748E-04   1.409459062173111E-04
   1.423624361246245E-04   1.437932023941863E-04   1.452383481038155E-04
   1.466980177692875E-04   1.481723573587851E-04   1.496615143074959E-04
   1.511656375323558E-04   1.526848774469407E-04   1.542193859765081E-04
   1.557693165731898E-04   1.573348242313371E-04   1.589160655030203E-04
   1.605131985136843E-04   1.621263829779611E-04   1.637557802156413E-04
   1.654015531678068E-04   1.670638664131241E-04   1.687428861843031E-04
   1.704387803847202E-04   1.721517186052085E-04   1.738818721410176E-04
   1.756294140089428E-04   1.773945189646271E-04   1.791773635200372E-04
   1.809781259611142E-04   1.827969863656030E-04   1.846341266210598E-04
   1.864897304430409E-04   1.883639833934750E-04   1.902570728992189E-04
   1.921691882708008E-04   1.941005207213512E-04   1.960512633857248E-04
   1.980216113398135E-04   2.000117616200548E-04   2.020219132431352E-04
   2.040522672258920E-04   2.061030266054157E-04   2.081743964593528E-04
   2.102665839264151E-04   2.123797982270927E-04   2.145142506845769E-04
   2.166701547458920E-04   2.188477260032409E-04   2.210471822155636E-04
   2.232687433303147E-04   2.255126315054566E-04   2.277790711316768E-04
   2.300682888548267E-04   2.323805135985863E-04   2.347159765873568E-04
   2.370749113693836E-04   2.394575538401102E-04   2.418641422657696E-04
   2.442949173072096E-04   2.467501220439600E-04   2.492300019985406E-04
   2.517348051610134E-04   2.542647820137820E-04   2.568201855566401E-04
   2.594012713320715E-04   2.620082974508044E-04   2.646415246176235E-04
   2.673012161574396E-04   2.699876380416231E-04   2.727010589146013E-04
   2.754417501207224E-04   2.782099857313914E-04   2.810060425724760E-04
   2.838302002519902E-04   2.866827411880558E-04   2.895639506371430E-04
   2.924741167225980E-04   2.954135304634545E-04   2.983824858035362E-04
   3.013812796408513E-04   3.044102118572821E-04   3.074695853485748E-04
   3.105597060546278E-04   3.136808829900871E-04   3.168334282752468E-04
   3.200176571672627E-04   3.232338880916776E-04   3.264824426742642E-04
   3.297636457731881E-04   3.330778255114930E-04   3.364253133099148E-04
   3.398064439200230E-04   3.432215554576964E-04   3.466709894369342E-04
   3.501550908040092E-04   3.536742079719614E-04   3.572286928554407E-04
   3.608189009058968E-04   3.644451911471269E-04   3.681079262111769E-04
   3.718074723746062E-04   3.755441995951131E-04   3.793184815485340E-04
   3.831306956662096E-04   3.869812231727288E-04   3.908704491240504E-04
   3.947987624460108E-04   3.987665559732159E-04   4.027742264883252E-04
   4.068221747617294E-04   4.109108055916293E-04   4.150405278445152E-04
   4.192117544960541E-04   4.234249026723866E-04   4.276803936918416E-04
   4.319786531070674E-04   4.363201107475871E-04   4.407052007627834E-04
   4.451343616653111E-04   4.496080363749519E-04   4.541266722629047E-04
   4.586907211965245E-04   4.633006395845070E-04   4.679568884225331E-04
   4.726599333393668E-04   4.774102446434196E-04   4.822082973697794E-04
   4.870545713277178E-04   4.919495511486691E-04   4.968937263346950E-04
   5.018875913074335E-04   5.069316454575437E-04   5.120263931946442E-04
   5.171723439977545E-04   5.223700124662429E-04   5.276199183712874E-04
   5.329225867078538E-04   5.382785477471951E-04   5.436883370898777E-04
   5.491524957193443E-04   5.546715700560115E-04   5.602461120119120E-04
   5.658766790458878E-04   5.715638342193329E-04   5.773081462525048E-04
   5.831101895813937E-04   5.889705444151680E-04   5.948897967941938E-04
   6.008685386486420E-04   6.069073678576807E-04   6.130068883092634E-04
   6.191677099605174E-04   6.253904488987420E-04   6.316757274030172E-04
   6.380241740064314E-04   6.444364235589341E-04   6.509131172908250E-04
   6.574549028768744E-04   6.640624345010928E-04   6.707363729221481E-04
   6.774773855394443E-04   6.842861464598610E-04   6.911633365651646E-04
   6.981096435800954E-04   7.051257621411442E-04   7.122123938660139E-04
   7.193702474237825E-04   7.266000386057713E-04   7.339024903971221E-04
   7.412783330491001E-04   7.487283041521169E-04   7.562531487094920E-04
   7.638536192119505E-04   7.715304757128769E-04   7.792844859043188E-04
   7.871164251937577E-04   7.950270767816479E-04   8.030172317397411E-04
   8.110876890901913E-04   8.192392558854601E-04   8.274727472890183E-04
   8.357889866568683E-04   8.441888056198771E-04   8.526730441669418E-04
   8.612425507289855E-04   8.698981822638067E-04   8.786408043417719E-04
   8.874712912323752E-04   8.963905259916627E-04   9.053994005505440E-04
   9.144988158039823E-04   9.236896817010860E-04   9.329729173361046E-04
   9.423494510403359E-04   9.518202204749651E-04   9.613861727248281E-04
   9.710482643931221E-04   9.808074616970640E-04   9.906647405645182E-04
   1.000621086731585E-03   1.010677495841180E-03   1.020834973542592E-03
   1.031094535592058E-03   1.041457207954330E-03   1.051924026905283E-03
   1.062496039135532E-03   1.073174301855111E-03   1.083959882899190E-03
   1.094853860834862E-03   1.105857325068999E-03   1.116971375957193E-03
   1.128197124913796E-03   1.139535694523059E-03   1.150988218651388E-03
   1.162555842560744E-03   1.174239723023155E-03   1.186041028436404E-03
   1.197960938940869E-03   1.210000646537532E-03   1.222161355207185E-03
   1.234444281030830E-03   1.246850652311287E-03   1.259381709696019E-03
   1.272038706301209E-03   1.284822907837065E-03   1.297735592734395E-03
   1.310778052272447E-03   1.323951590708045E-03   1.337257525406011E-03
   1.350697186970903E-03   1.364271919380076E-03   1.377983080118084E-03
   1.391832040312427E-03   1.405820184870667E-03   1.419948912618913E-03
   1.434219636441715E-03   1.448633783423349E-03   1.463192794990525E-03
   1.477898127056530E-03   1.492751250166827E-03   1.507753649646104E-03
   1.522906825746811E-03   1.538212293799188E-03   1.553671584362791E-03
   1.569286243379561E-03   1.585057832328411E-03   1.600987928381382E-03
   1.617078124561351E-03   1.633330029901345E-03   1.649745269605443E-03
   1.666325485211294E-03   1.683072334754275E-03   1.699987492933296E-03
   1.717072651278271E-03   1.734329518319274E-03   1.751759819757387E-03
   1.769365298637281E-03   1.787147715521514E-03   1.805108848666596E-03
   1.823250494200805E-03   1.841574466303814E-03   1.860082597388105E-03
   1.878776738282210E-03   1.897658758415794E-03   1.916730546006607E-03
   1.935994008249302E-03   1.955451071506155E-03   1.975103681499709E-03
   1.994953803507336E-03   2.015003422557781E-03   2.035254543629657E-03
   2.055709191851949E-03   2.076369412706520E-03   2.097237272232676E-03
   2.118314857233758E-03   2.139604275485835E-03   2.161107655948468E-03
   2.182827148977624E-03   2.204764926540707E-03   2.226923182433756E-03
   2.249304132500822E-03   2.271910014855565E-03   2.294743090105057E-03
   2.317805641575855E-03   2.341099975542318E-03   2.364628421457261E-03
   2.388393332184878E-03   2.412397084236051E-03   2.436642078005982E-03
   2.461130738014256E-03   2.485865513147281E-03   2.510848876903184E-03
   2.536083327639156E-03   2.561571388821302E-03   2.587315609276980E-03
   2.613318563449689E-03   2.639582851656518E-03   2.666111100348170E-03
   2.692905962371624E-03   2.719970117235411E-03   2.747306271377573E-03
   2.774917158436299E-03   2.802805539523309E-03   2.830974203499949E-03
   2.859425967256095E-03   2.888163675991827E-03   2.917190203501969E-03
   2.946508452463461E-03   2.976121354725635E-03   3.006031871603388E-03
   3.036242994173335E-03   3.066757743572911E-03   3.097579171302487E-03
   3.128710359530515E-03   3.160154421401764E-03   3.191914501348623E-03
   3.223993775405558E-03   3.256395451526701E-03   3.289122769906669E-03
   3.322179003304572E-03   3.355567457371297E-03   3.389291470980078E-03
   3.423354416560373E-03   3.457759700435128E-03   3.492510763161403E-03
   3.527611079874433E-03   3.563064160635133E-03   3.598873550781126E-03
   3.635042831281269E-03   3.671575619093756E-03   3.708475567527805E-03
   3.745746366609013E-03   3.783391743448349E-03   3.821415462614869E-03
   3.859821326512171E-03   3.898613175758652E-03   3.937794889571565E-03
   3.977370386154945E-03   4.017343623091424E-03   4.057718597738008E-03
   4.098499347625811E-03   4.139689950863807E-03   4.181294526546639E-03
   4.223317235166549E-03   4.265762279029419E-03   4.308633902675004E-03
   4.351936393301403E-03   4.395674081193753E-03   4.439851340157295E-03
   4.484472587954743E-03   4.529542286748063E-03   4.575064943544684E-03
   4.621045110648227E-03   4.667487386113719E-03   4.714396414207411E-03
   4.761776885871198E-03   4.809633539191732E-03   4.857971159874226E-03
   4.906794581721035E-03   4.956108687115021E-03   5.005918407507823E-03
   5.056228723912988E-03   5.107044667404087E-03   5.158371319617806E-03
   5.210213813262144E-03   5.262577332629669E-03   5.315467114115955E-03
   5.368888446743220E-03   5.422846672689248E-03   5.477347187821598E-03
   5.532395442237203E-03   5.587996940807380E-03   5.644157243728314E-03
   5.700881967077099E-03   5.758176783373343E-03   5.816047422146427E-03
   5.874499670508441E-03   5.933539373732941E-03   5.993172435839445E-03
   6.053404820183867E-03   6.114242550054822E-03   6.175691709276001E-03
   6.237758442814535E-03   6.300448957395505E-03   6.363769522122601E-03
   6.427726469105067E-03   6.492326194090902E-03   6.557575157106441E-03
   6.623479883102349E-03   6.690046962606152E-03   6.757283052381273E-03
   6.825194876092727E-03   6.893789224979465E-03   6.963072958533544E-03
   7.033053005186057E-03   7.103736362999986E-03   7.175130100370021E-03
   7.247241356729382E-03   7.320077343263804E-03   7.393645343632635E-03
   7.467952714697230E-03   7.543006887256602E-03   7.618815366790560E-03
   7.695385734210230E-03   7.772725646616172E-03   7.850842838064061E-03
   7.929745120338148E-03   8.009440383732410E-03   8.089936597839610E-03
   8.171241812348223E-03   8.253364157847460E-03   8.336311846640309E-03
   8.420093173564781E-03   8.504716516823368E-03   8.590190338820924E-03
   8.676523187010879E-03   8.763723694750002E-03   8.851800582161720E-03
   8.940762657008178E-03   9.030618815571000E-03   9.121378043540919E-03
   9.213049416916372E-03   9.305642102911077E-03   9.399165360870801E-03
   9.493628543199276E-03   9.589041096293461E-03   9.685412561488162E-03
   9.782752576010216E-03   9.881070873942192E-03   9.980377287195825E-03
   1.008068174649518E-02   1.018199428236977E-02   1.028432502615763E-02
   1.038768421101841E-02   1.049208217295672E-02   1.059752935185576E-02
   1.070403629252128E-02   1.081161364573612E-02   1.092027216932524E-02
   1.103002272923155E-02   1.114087630060249E-02   1.125284396888760E-02
   1.136593693094699E-02   1.148016649617113E-02   1.159554408761171E-02
   1.171208124312404E-02   1.182978961652080E-02   1.194868097873739E-02
   1.206876721900912E-02   1.219006034606008E-02   1.231257248930409E-02
   1.243631590005752E-02   1.256130295276459E-02   1.268754614623473E-02
   1.281505810489249E-02   1.294385158003998E-02   1.307393945113205E-02
   1.320533472706422E-02   1.333805054747359E-02   1.347210018405278E-02
   1.360749704187716E-02   1.374425466074534E-02   1.388238671653320E-02
   1.402190702256139E-02   1.416282953097680E-02   1.430516833414770E-02
   1.444893766607304E-02   1.459415190380580E-02   1.474082556889078E-02
   1.488897332881671E-02   1.503860999848305E-02   1.518975054168144E-02
   1.534241007259216E-02   1.549660385729553E-02   1.565234731529851E-02
   1.580965602107670E-02   1.596854570563174E-02   1.612903225806452E-02
   1.629113172716400E-02   1.645486032301218E-02   1.662023441860510E-02
   1.678727055149015E-02   1.695598542541975E-02   1.712639591202194E-02
   1.729851905248737E-02   1.747237205927353E-02   1.764797231782597E-02
   1.782533738831689E-02   1.800448500740114E-02   1.818543308998995E-02
   1.836819973104230E-02   1.855280320737464E-02   1.873926197948845E-02
   1.892759469341630E-02   1.911782018258654E-02   1.930995746970661E-02
   1.950402576866534E-02   1.970004448645434E-02   1.989803322510878E-02
   2.009801178366745E-02   2.030000016015288E-02   2.050401855357105E-02
   2.071008736593131E-02   2.091822720428664E-02   2.112845888279431E-02
   2.134080342479736E-02   2.155528206492699E-02   2.177191625122587E-02
   2.199072764729320E-02   2.221173813445092E-02   2.243496981393194E-02
   2.266044500909022E-02   2.288818626763317E-02   2.311821636387644E-02
   2.335055830102139E-02   2.358523531345525E-02   2.382227086907489E-02
   2.406168867163340E-02   2.430351266311054E-02   2.454776702610699E-02
   2.479447618626260E-02   2.504366481469896E-02   2.529535783048657E-02
   2.554958040313682E-02   2.580635795511873E-02   2.606571616440152E-02
   2.632768096702225E-02   2.659227855967949E-02   2.685953540235300E-02
   2.712947822094977E-02   2.740213400997660E-02   2.767753003523968E-02
   2.795569383657091E-02   2.823665323058229E-02   2.852043631344735E-02
   2.880707146371086E-02   2.909658734512672E-02   2.938901290952433E-02
   2.968437739970381E-02   2.998271035236038E-02   3.028404160103781E-02
   3.058840127911213E-02   3.089581982280478E-02   3.120632797422632E-02
   3.151995678445064E-02   3.183673761662011E-02   3.215670214908196E-02
   3.247988237855611E-02   3.280631062333472E-02   3.313601952651433E-02
   3.346904205926006E-02   3.380541152410266E-02   3.414516155826895E-02
   3.448832613704545E-02   3.483493957717604E-02   3.518503654029354E-02
   3.553865203638611E-02   3.589582142729789E-02   3.625658043026569E-02
   3.662096512149043E-02   3.698901193974489E-02   3.736075769001761E-02
   3.773623954719339E-02   3.811549505977086E-02   3.849856215361740E-02
   3.888547913576148E-02   3.927628469822381E-02   3.967101792188630E-02
   4.006971828040027E-02   4.047242564413383E-02   4.087918028415894E-02
   4.129002287627855E-02   4.170499450509434E-02   4.212413666811484E-02
   4.254749127990572E-02   4.297510067628094E-02   4.340700761853650E-02
   4.384325529772654E-02   4.428388733898252E-02   4.472894780587575E-02
   4.517848120482383E-02   4.563253248954132E-02   4.609114706553493E-02
   4.655437079464451E-02   4.702224999962899E-02   4.749483146879878E-02
   4.797216246069459E-02   4.845429070881342E-02   4.894126442638184E-02
   4.943313231117750E-02   4.992994355039861E-02   5.043174782558318E-02
   5.093859531757692E-02   5.145053671155137E-02   5.196762320207257E-02
   5.248990649822048E-02   5.301743882875994E-02   5.355027294736373E-02
   5.408846213788752E-02   5.463206021969898E-02   5.518112155305928E-02
   5.573570104455930E-02   5.629585415261035E-02   5.686163689299002E-02
   5.743310584444386E-02   5.801031815434321E-02   5.859333154440020E-02
   5.918220431643946E-02   5.977699535822904E-02   6.037776414936877E-02
   6.098457076723841E-02   6.159747589300540E-02   6.221654081769312E-02
   6.284182744830988E-02   6.347339831403995E-02   6.411131657249598E-02
   6.475564601603555E-02   6.540645107813994E-02   6.606379683985769E-02
   6.672774903631278E-02   6.739837406327814E-02   6.807573898381533E-02
   6.875991153498100E-02   6.945096013460016E-02   7.014895388810877E-02
   7.085396259546385E-02   7.156605675812364E-02   7.228530758609782E-02
   7.301178700506857E-02   7.374556766358317E-02   7.448672294031899E-02
   7.523532695142146E-02   7.599145455791524E-02   7.675518137319123E-02
   7.752658377056741E-02   7.830573889092636E-02   7.909272465042937E-02
   7.988761974830828E-02   8.069050367473525E-02   8.150145671877213E-02
   8.232055997639887E-02   8.314789535862394E-02   8.398354559967501E-02
   8.482759426527257E-02   8.568012576098656E-02   8.654122534067700E-02
   8.741097911501941E-02   8.828947406011621E-02   8.917679802619369E-02
   9.007303974638801E-02   9.097828884561812E-02   9.189263584954827E-02
   9.281617219364081E-02   9.374899023229979E-02   9.469118324810644E-02
   9.564284546114746E-02   9.660407203843741E-02   9.757495910343468E-02
   9.855560374565504E-02   9.954610403037992E-02   1.005465590084632E-01
   1.015570687262364E-01   1.025777342355134E-01   1.036086576036957E-01
   1.046499419239793E-01   1.057016913256638E-01   1.067640109845658E-01
   1.078370071335367E-01   1.089207870730853E-01   1.100154591821089E-01
   1.111211329287305E-01   1.122379188812463E-01   1.133659287191823E-01
   1.145052752444619E-01   1.156560723926874E-01   1.168184352445325E-01
   1.179924800372511E-01   1.191783241763008E-01   1.203760862470838E-01
   1.215858860268051E-01   1.228078444964511E-01   1.240420838528872E-01
   1.252887275210771E-01   1.265479001664266E-01   1.278197277072498E-01
   1.291043373273605E-01   1.304018574887913E-01   1.317124179446394E-01
   1.330361497520428E-01   1.343731852852855E-01   1.357236582490345E-01
   1.370877036917117E-01   1.384654580189983E-01   1.398570590074751E-01
   1.412626458184006E-01   1.426823590116271E-01   1.441163405596572E-01
   1.455647338618408E-01   1.470276837587148E-01   1.485053365464880E-01
   1.499978399916708E-01   1.515053433458514E-01   1.530279973606214E-01
   1.545659543026512E-01   1.561193679689167E-01   1.576883937020790E-01
   1.592731884060192E-01   1.608739105615279E-01   1.624907202421547E-01
   1.641237791302151E-01   1.657732505329588E-01   1.674392993989007E-01
   1.691220923343157E-01   1.708217976198996E-01   1.725385852275978E-01
   1.742726268376011E-01   1.760240958555158E-01   1.777931674297033E-01
   1.795800184687953E-01   1.813848276593846E-01   1.832077754838944E-01
   1.850490442386263E-01   1.869088180519904E-01   1.887872829029172E-01
   1.906846266394576E-01   1.926010389975663E-01   1.945367116200761E-01
   1.964918380758625E-01   1.984666138792001E-01   2.004612365093151E-01
   2.024759054301326E-01   2.045108221102240E-01   2.065661900429523E-01
   2.086422147668239E-01   2.107391038860413E-01   2.128570670912638E-01
   2.149963161805770E-01   2.171570650806724E-01   2.193395298682406E-01
   2.215439287915796E-01   2.237704822924180E-01   2.260194130279616E-01
   2.282909458931582E-01   2.305853080431871E-01   2.329027289161755E-01
   2.352434402561417E-01   2.376076761361704E-01   2.399956729818201E-01
   2.424076695947648E-01   2.448439071766759E-01   2.473046293533420E-01
   2.497900821990313E-01   2.523005142610996E-01   2.548361765848451E-01
   2.573973227386133E-01   2.599842088391538E-01   2.625970935772329E-01
   2.652362382435010E-01   2.679019067546243E-01   2.705943656796755E-01
   2.733138842667907E-01   2.760607344700948E-01   2.788351909768973E-01
   2.816375312351609E-01   2.844680354812474E-01   2.873269867679389E-01
   2.902146709927472E-01   2.931313769265011E-01   2.960773962422246E-01