<UPF version="2.0.1">
  <PP_INFO>
    Generated using "atomic" code by A. Dal Corso  v.6.8
    Author: D.C.
    Generation date: 24Oct2024
    Pseudopotential type: USPP
    Element: Nd
    Functional: PBE
    Suggested minimum cutoff for wavefunctions:  66. Ry
    Suggested minimum cutoff for charge density: 263. Ry
    The Pseudo was generated with a Scalar-Relativistic Calculation
    L component and cutoff radius for Local Potential:  2   2.1000
    Pseudopotential contains additional information for GIPAW reconstruction.
    Valence configuration: 
    nl pn  l   occ       Rcut    Rcut US       E pseu
    4F  4  3  4.00      1.300      2.000    -0.128705
    5F  5  3  0.00      1.300      2.000     0.001199
    5P  2  1  6.00      1.300      1.800    -1.623506
    6P  3  1  0.00      1.300      1.800    -0.090543
    5S  1  0  2.00      1.300      1.600    -2.973999
    6S  2  0  2.00      1.300      1.600    -0.257377
    5D  3  2  0.00      4.476      4.924    -0.140930
    Generation configuration:
    4F  4  3  4.00      1.300      2.000    -0.128703
    5F  5  3  0.00      1.300      2.000     0.500000
    5P  2  1  6.00      1.300      1.800    -1.623481
    6P  3  1  0.00      1.300      1.800     0.500000
    5S  1  0  2.00      1.300      1.600    -2.973976
    6S  2  0  2.00      1.300      1.600    -0.257374
    5D  3  2  0.00      2.100      2.100    -0.140923
    Pseudization used: troullier-martins
    <PP_INPUTFILE>
@input
title = 'Nd'
prefix = 'nd'
verbosity = 'high'
zed = 60
dft = 'pbe'
rel = 1
iswitch = 3
beta = 0.2
xmin = -8.0, dx = 0.01
nld = 4, rlderiv = 3.4, eminld  = -5.0, emaxld  = 5.0, deld = 0.002
/
16
1S  1  0   2.0
2S  2  0   2.0
2P  2  1   6.0
3S  3  0   2.0
3P  3  1   6.0
3D  3  2  10.0
4S  4  0   2.0
4P  4  1   6.0
4D  4  2  10.0
5S  5  0   2.0
5P  5  1   6.0
5D  5  2   0.0
4F  4  3   4.0
6S  6  0   2.0
6P  6  1   0.0
5F  5  3   0.0
@inputp
pseudotype = 3
lloc = 2
rcloc = 2.1
tm = .true.
nlcc = .true.
new_core_ps = .true.
rcore = 1.3
file_core = 'nd.core'
file_pseudopw = 'Nd.pbe-rrkjus-semi-gipaw-dc.UPF'
lgipaw_reconstruction = .true.
!upf_v1_format = .true.
author = 'D.C.'
/
7
4F  4  3  4.0  0.00  1.30  2.00
5F  5  3  0.0  0.50  1.30  2.00
5P  2  1  6.0  0.00  1.30  1.80
6P  3  1  0.0  0.50  1.30  1.80
5S  1  0  2.0  0.00  1.30  1.60
6S  2  0  2.0  0.00  1.30  1.60
5D  3  2  0.0  0.00  2.10  2.10
@test
ecutmin = 20
ecutmax = 60
decut   = 5
/
7
4F  4  3  4.0  0.00  1.30  2.00
5F  5  3  0.0  0.50  1.30  2.00
5P  2  1  6.0  0.00  1.30  1.80
6P  3  1  0.0  0.50  1.30  1.80
5S  1  0  2.0  0.00  1.30  1.60
6S  2  0  2.0  0.00  1.30  1.60
5D  3  2  0.0  0.00  2.10  2.10
    </PP_INPUTFILE>
  </PP_INFO>
    <!-- END OF HUMAN READABLE SECTION -->
  <PP_HEADER generated="Generated using 'atomic' code by A. Dal Corso  v.6.8" author="D.C." date="24Oct2024" comment="" element="Nd" pseudo_type="USPP" relativistic="scalar" is_ultrasoft="true" is_paw="false" is_coulomb="false" has_so="false" has_wfc="false" has_gipaw="true" paw_as_gipaw="false" core_correction="true" functional="PBE" z_valence="14.0000000000000" total_psenergy="-136.857262293074" wfc_cutoff="65.7155243938041" rho_cutoff="262.862097575216" l_max="3" l_max_rho="6" l_local="2" mesh_size="1671" number_of_wfc="7" number_of_proj="6"/>
  <PP_MESH mesh="1671" dx="1.000000000000000E-002" xmin="-8.00000000000000" rmax="100.000000000000" zmesh="60.0000000000000">
    <PP_R>
   5.591043798375198E-06   5.647234722723769E-06   5.703990375250656E-06
   5.761316431568416E-06   5.819218624330440E-06   5.877702743804263E-06
   5.936774638450567E-06   5.996440215508051E-06   6.056705441584131E-06
   6.117576343251640E-06   6.179059007651471E-06   6.241159583101305E-06
   6.303884279710430E-06   6.367239370000779E-06   6.431231189534177E-06
   6.495866137545914E-06   6.561150677584638E-06   6.627091338158764E-06
   6.693694713389301E-06   6.760967463669281E-06   6.828916316329780E-06
   6.897548066312694E-06   6.966869576850215E-06   7.036887780151172E-06
   7.107609678094231E-06   7.179042342928125E-06   7.251192917978868E-06
   7.324068618364091E-06   7.397676731714567E-06   7.472024618902959E-06
   7.547119714779949E-06   7.622969528917705E-06   7.699581646360855E-06
   7.776963728384974E-06   7.855123513262757E-06   7.934068817037822E-06
   8.013807534306345E-06   8.094347639006487E-06   8.175697185215842E-06
   8.257864307956822E-06   8.340857224010181E-06   8.424684232736672E-06
   8.509353716907030E-06   8.594874143540230E-06   8.681254064750211E-06
   8.768502118601063E-06   8.856627029970882E-06   8.945637611424247E-06
   9.035542764093483E-06   9.126351478568769E-06   9.218072835797227E-06
   9.310716007991018E-06   9.404290259544563E-06   9.498804947961006E-06
   9.594269524787935E-06   9.690693536562593E-06   9.788086625766522E-06
   9.886458531789784E-06   9.985819091904968E-06   1.008617824225089E-05
   1.018754601882620E-05   1.028993255849307E-05   1.039334809999074E-05
   1.049780298495957E-05   1.060330765897509E-05   1.070987267259263E-05
   1.081750868240235E-05   1.092622645209493E-05   1.103603685353794E-05
   1.114695086786304E-05   1.125897958656407E-05   1.137213421260628E-05
   1.148642606154655E-05   1.160186656266504E-05   1.171846726010805E-05
   1.183623981404248E-05   1.195519600182189E-05   1.207534771916418E-05
   1.219670698134121E-05   1.231928592438033E-05   1.244309680627799E-05
   1.256815200822557E-05   1.269446403584745E-05   1.282204552045168E-05
   1.295090922029303E-05   1.308106802184886E-05   1.321253494110782E-05
   1.334532312487136E-05   1.347944585206852E-05   1.361491653508381E-05
   1.375174872109841E-05   1.388995609344494E-05   1.402955247297582E-05
   1.417055181944532E-05   1.431296823290562E-05   1.445681595511671E-05
   1.460210937097069E-05   1.474886300993024E-05   1.489709154748156E-05
   1.504680980660189E-05   1.519803275924194E-05   1.535077552782297E-05
   1.550505338674915E-05   1.566088176393493E-05   1.581827624234788E-05
   1.597725256156700E-05   1.613782661935671E-05   1.630001447325658E-05
   1.646383234218716E-05   1.662929660807187E-05   1.679642381747517E-05
   1.696523068325731E-05   1.713573408624550E-05   1.730795107692214E-05
   1.748189887712982E-05   1.765759488179350E-05   1.783505666066007E-05
   1.801430196005531E-05   1.819534870465851E-05   1.837821499929503E-05
   1.856291913074672E-05   1.874947956958062E-05   1.893791497199610E-05
   1.912824418169044E-05   1.932048623174319E-05   1.951466034651957E-05
   1.971078594359288E-05   1.990888263568625E-05   2.010897023263401E-05
   2.031106874336254E-05   2.051519837789135E-05   2.072137954935403E-05
   2.092963287603949E-05   2.113997918345398E-05   2.135243950640352E-05
   2.156703509109747E-05   2.178378739727313E-05   2.200271810034171E-05
   2.222384909355599E-05   2.244720249019958E-05   2.267280062579823E-05
   2.290066606035353E-05   2.313082158059881E-05   2.336329020227790E-05
   2.359809517244670E-05   2.383525997179791E-05   2.407480831700905E-05
   2.431676416311431E-05   2.456115170589994E-05   2.480799538432382E-05
   2.505731988295954E-05   2.530915013446472E-05   2.556351132207439E-05
   2.582042888211927E-05   2.607992850656944E-05   2.634203614560362E-05
   2.660677801020415E-05   2.687418057477806E-05   2.714427057980468E-05
   2.741707503450958E-05   2.769262121956556E-05   2.797093668982079E-05
   2.825204927705417E-05   2.853598709275871E-05   2.882277853095262E-05
   2.911245227101866E-05   2.940503728057226E-05   2.970056281835819E-05
   2.999905843717652E-05   3.030055398683786E-05   3.060507961714845E-05
   3.091266578092505E-05   3.122334323704039E-05   3.153714305349899E-05
   3.185409661054396E-05   3.217423560379515E-05   3.249759204741868E-05
   3.282419827732836E-05   3.315408695441939E-05   3.348729106783434E-05
   3.382384393826224E-05   3.416377922127062E-05   3.450713091067101E-05
   3.485393334191850E-05   3.520422119554524E-05   3.555802950062847E-05
   3.591539363829358E-05   3.627634934525209E-05   3.664093271737552E-05
   3.700918021330493E-05   3.738112865809672E-05   3.775681524690537E-05
   3.813627754870282E-05   3.851955351003549E-05   3.890668145881888E-05
   3.929770010817055E-05   3.969264856028118E-05   4.009156631032516E-05
   4.049449325040996E-05   4.090146967356529E-05   4.131253627777264E-05
   4.172773417003500E-05   4.214710487048759E-05   4.257069031654997E-05
   4.299853286711967E-05   4.343067530680831E-05   4.386716085022001E-05
   4.430803314627278E-05   4.475333628256367E-05   4.520311478977739E-05
   4.565741364613947E-05   4.611627828191414E-05   4.657975458394739E-05
   4.704788890025561E-05   4.752072804466057E-05   4.799831930147072E-05
   4.848071043020973E-05   4.896794967039250E-05   4.946008574634906E-05
   4.995716787209715E-05   5.045924575626359E-05   5.096636960705512E-05
   5.147859013727953E-05   5.199595856941658E-05   5.251852664074069E-05
   5.304634660849445E-05   5.357947125511450E-05   5.411795389350977E-05
   5.466184837239288E-05   5.521120908166487E-05   5.576609095785458E-05
   5.632654948961192E-05   5.689264072325717E-05   5.746442126838544E-05
   5.804194830352772E-05   5.862527958186881E-05   5.921447343702264E-05
   5.980958878886580E-05   6.041068514942926E-05   6.101782262885014E-05
   6.163106194138221E-05   6.225046441146779E-05   6.287609197987009E-05
   6.350800720986728E-05   6.414627329350899E-05   6.479095405793550E-05
   6.544211397176040E-05   6.609981815151781E-05   6.676413236817367E-05
   6.743512305370332E-05   6.811285730773445E-05   6.879740290425727E-05
   6.948882829840185E-05   7.018720263328392E-05   7.089259574691875E-05
   7.160507817920572E-05   7.232472117898165E-05   7.305159671114626E-05
   7.378577746385852E-05   7.452733685580554E-05   7.527634904354445E-05
   7.603288892891821E-05   7.679703216654587E-05   7.756885517138786E-05
   7.834843512638801E-05   7.913584999019129E-05   7.993117850494035E-05
   8.073450020414945E-05   8.154589542065793E-05   8.236544529466363E-05
   8.319323178183694E-05   8.402933766151632E-05   8.487384654498659E-05
   8.572684288383972E-05   8.658841197842051E-05   8.745863998635641E-05
   8.833761393117337E-05   8.922542171099838E-05   9.012215210734933E-05
   9.102789479401298E-05   9.194274034601295E-05   9.286678024866664E-05
   9.380010690673442E-05   9.474281365365992E-05   9.569499476090337E-05
   9.665674544736903E-05   9.762816188892695E-05   9.860934122803096E-05
   9.960038158343238E-05   1.006013820599928E-04   1.016124427585940E-04
   1.026336647861483E-04   1.036651502657095E-04   1.047070023466853E-04
   1.057593252151518E-04   1.068222241042730E-04   1.078958053048234E-04
   1.089801761758178E-04   1.100754451552469E-04   1.111817217709212E-04
   1.122991166514244E-04   1.134277415371757E-04   1.145677092916041E-04
   1.157191339124352E-04   1.168821305430904E-04   1.180568154842021E-04
   1.192433062052431E-04   1.204417213562744E-04   1.216521807798097E-04
   1.228748055228002E-04   1.241097178487390E-04   1.253570412498877E-04
   1.266169004596261E-04   1.278894214649248E-04   1.291747315189450E-04
   1.304729591537629E-04   1.317842341932240E-04   1.331086877659250E-04
   1.344464523183269E-04   1.357976616279997E-04   1.371624508170005E-04
   1.385409563653853E-04   1.399333161248580E-04   1.413396693325545E-04
   1.427601566249677E-04   1.441949200520106E-04   1.456441030912215E-04
   1.471078506621120E-04   1.485863091406592E-04   1.500796263739427E-04
   1.515879516949304E-04   1.531114359374112E-04   1.546502314510791E-04
   1.562044921167676E-04   1.577743733618387E-04   1.593600321757251E-04
   1.609616271256295E-04   1.625793183723817E-04   1.642132676864543E-04
   1.658636384641405E-04   1.675305957438931E-04   1.692143062228294E-04
   1.709149382734004E-04   1.726326619602283E-04   1.743676490571132E-04
   1.761200730642109E-04   1.778901092253821E-04   1.796779345457182E-04
   1.814837278092409E-04   1.833076695967814E-04   1.851499423040384E-04
   1.870107301598181E-04   1.888902192444565E-04   1.907885975084285E-04
   1.927060547911423E-04   1.946427828399242E-04   1.965989753291929E-04
   1.985748278798275E-04   2.005705380787296E-04   2.025863054985823E-04
   2.046223317178073E-04   2.066788203407233E-04   2.087559770179064E-04
   2.108540094667551E-04   2.129731274922629E-04   2.151135430079979E-04
   2.172754700572956E-04   2.194591248346625E-04   2.216647257073961E-04
   2.238924932374217E-04   2.261426502033489E-04   2.284154216227491E-04
   2.307110347746586E-04   2.330297192223051E-04   2.353717068360660E-04
   2.377372318166543E-04   2.401265307185392E-04   2.425398424736021E-04
   2.449774084150297E-04   2.474394723014472E-04   2.499262803412953E-04
   2.524380812174499E-04   2.549751261120920E-04   2.575376687318252E-04
   2.601259653330472E-04   2.627402747475748E-04   2.653808584085281E-04
   2.680479803764739E-04   2.707419073658312E-04   2.734629087715443E-04
   2.762112566960209E-04   2.789872259763439E-04   2.817910942117546E-04
   2.846231417914132E-04   2.874836519224377E-04   2.903729106582253E-04
   2.932912069270565E-04   2.962388325609910E-04   2.992160823250478E-04
   3.022232539466846E-04   3.052606481455696E-04   3.083285686636541E-04
   3.114273222955463E-04   3.145572189191916E-04   3.177185715268606E-04
   3.209116962564487E-04   3.241369124230900E-04   3.273945425510883E-04
   3.306849124061715E-04   3.340083510280669E-04   3.373651907634063E-04
   3.407557672989611E-04   3.441804196952094E-04   3.476394904202453E-04
   3.511333253840237E-04   3.546622739729529E-04   3.582266890848321E-04
   3.618269271641429E-04   3.654633482376935E-04   3.691363159506221E-04
   3.728461976027600E-04   3.765933641853644E-04   3.803781904182162E-04
   3.842010547870930E-04   3.880623395816168E-04   3.919624309334851E-04
   3.959017188550833E-04   3.998805972784864E-04   4.038994640948521E-04
   4.079587211942112E-04   4.120587745056565E-04   4.162000340379361E-04
   4.203829139204537E-04   4.246078324446836E-04   4.288752121059990E-04
   4.331854796459226E-04   4.375390660947995E-04   4.419364068149030E-04
   4.463779415439696E-04   4.508641144391733E-04   4.553953741215428E-04
   4.599721737208214E-04   4.645949709207836E-04   4.692642280050016E-04
   4.739804119030753E-04   4.787439942373239E-04   4.835554513699509E-04
   4.884152644506791E-04   4.933239194648669E-04   4.982819072821054E-04
   5.032897237053083E-04   5.083478695202914E-04   5.134568505458515E-04
   5.186171776843479E-04   5.238293669727952E-04   5.290939396344656E-04
   5.344114221310130E-04   5.397823462151176E-04   5.452072489836637E-04
   5.506866729314488E-04   5.562211660054350E-04   5.618112816595403E-04
   5.674575789099891E-04   5.731606223912118E-04   5.789209824123092E-04
   5.847392350140840E-04   5.906159620266440E-04   5.965517511275883E-04
   6.025471959007735E-04   6.086028958956736E-04   6.147194566873336E-04
   6.208974899369301E-04   6.271376134529366E-04   6.334404512529056E-04
   6.398066336258680E-04   6.462367971953668E-04   6.527315849831178E-04
   6.592916464733124E-04   6.659176376775653E-04   6.726102212005191E-04
   6.793700663061035E-04   6.861978489844625E-04   6.930942520195530E-04
   7.000599650574258E-04   7.070956846751897E-04   7.142021144506700E-04
   7.213799650327653E-04   7.286299542125157E-04   7.359528069948810E-04
   7.433492556712419E-04   7.508200398926303E-04   7.583659067436928E-04
   7.659876108174034E-04   7.736859142905209E-04   7.814615869998085E-04
   7.893154065190155E-04   7.972481582366395E-04   8.052606354344628E-04
   8.133536393668831E-04   8.215279793410362E-04   8.297844727977324E-04
   8.381239453931977E-04   8.465472310816420E-04   8.550551721986522E-04
   8.636486195454305E-04   8.723284324738730E-04   8.810954789725064E-04
   8.899506357532851E-04   8.988947883392669E-04   9.079288311531643E-04
   9.170536676067876E-04   9.262702101913848E-04   9.355793805688954E-04
   9.449821096641151E-04   9.544793377577888E-04   9.640720145806414E-04
   9.737610994083472E-04   9.835475611574640E-04   9.934323784823223E-04
   1.003416539872893E-03   1.013501043753633E-03   1.023686898583335E-03
   1.033975122955971E-03   1.044366745702553E-03   1.054862805994012E-03
   1.065464353445126E-03   1.076172448219475E-03   1.086988161135459E-03
   1.097912573773383E-03   1.108946778583614E-03   1.120091878995829E-03
   1.131348989529358E-03   1.142719235904632E-03   1.154203755155767E-03
   1.165803695744256E-03   1.177520217673827E-03   1.189354492606435E-03
   1.201307703979435E-03   1.213381047123926E-03   1.225575729384285E-03
   1.237892970238898E-03   1.250334001422116E-03   1.262900067047425E-03
   1.275592423731858E-03   1.288412340721663E-03   1.301361100019219E-03
   1.314439996511249E-03   1.327650338098300E-03   1.340993445825541E-03
   1.354470654014862E-03   1.368083310398313E-03   1.381832776252878E-03
   1.395720426536600E-03   1.409747650026079E-03   1.423915849455354E-03
   1.438226441656175E-03   1.452680857699689E-03   1.467280543039543E-03
   1.482026957656439E-03   1.496921576204127E-03   1.511965888156876E-03
   1.527161397958415E-03   1.542509625172388E-03   1.558012104634308E-03
   1.573670386605038E-03   1.589486036925828E-03   1.605460637174884E-03
   1.621595784825546E-03   1.637893093406025E-03   1.654354192660762E-03
   1.670980728713396E-03   1.687774364231390E-03   1.704736778592291E-03
   1.721869668051671E-03   1.739174745912751E-03   1.756653742697739E-03
   1.774308406320880E-03   1.792140502263250E-03   1.810151813749300E-03
   1.828344141925190E-03   1.846719306038898E-03   1.865279143622149E-03
   1.884025510674165E-03   1.902960281847275E-03   1.922085350634375E-03
   1.941402629558284E-03   1.960914050362987E-03   1.980621564206828E-03
   2.000527141857612E-03   2.020632773889694E-03   2.040940470883032E-03
   2.061452263624247E-03   2.082170203309707E-03   2.103096361750645E-03
   2.124232831580347E-03   2.145581726463404E-03   2.167145181307098E-03
   2.188925352474884E-03   2.210924418002030E-03   2.233144577813416E-03
   2.255588053943545E-03   2.278257090758731E-03   2.301153955181548E-03
   2.324280936917516E-03   2.347640348684084E-03   2.371234526441892E-03
   2.395065829628383E-03   2.419136641393729E-03   2.443449368839169E-03
   2.468006443257707E-03   2.492810320377252E-03   2.517863480606182E-03
   2.543168429281398E-03   2.568727696918857E-03   2.594543839466623E-03
   2.620619438560461E-03   2.646957101782012E-03   2.673559462919546E-03
   2.700429182231345E-03   2.727568946711736E-03   2.754981470359776E-03
   2.782669494450678E-03   2.810635787809925E-03   2.838883147090159E-03
   2.867414397050843E-03   2.896232390840752E-03   2.925340010283281E-03
   2.954740166164631E-03   2.984435798524888E-03   3.014429876952035E-03
   3.044725400878910E-03   3.075325399883156E-03   3.106232933990167E-03
   3.137451093979113E-03   3.168983001692008E-03   3.200831810345904E-03
   3.233000704848200E-03   3.265492902115156E-03   3.298311651393577E-03
   3.331460234585743E-03   3.364941966577591E-03   3.398760195570225E-03
   3.432918303414724E-03   3.467419705950340E-03   3.502267853346080E-03
   3.537466230445718E-03   3.573018357116299E-03   3.608927788600117E-03
   3.645198115870248E-03   3.681832965989638E-03   3.718836002473830E-03
   3.756210925657311E-03   3.793961473063547E-03   3.832091419778731E-03
   3.870604578829314E-03   3.909504801563293E-03   3.948795978035364E-03
   3.988482037395910E-03   4.028566948283941E-03   4.069054719223951E-03
   4.109949399026777E-03   4.151255077194471E-03   4.192975884329275E-03
   4.235115992546671E-03   4.277679615892601E-03   4.320671010764860E-03
   4.364094476338768E-03   4.407954354997066E-03   4.452255032764171E-03
   4.497000939744783E-03   4.542196550566878E-03   4.587846384829205E-03
   4.633955007553234E-03   4.680527029639665E-03   4.727567108329508E-03
   4.775079947669835E-03   4.823070298984176E-03   4.871542961347659E-03
   4.920502782066905E-03   4.969954657164790E-03   5.019903531870034E-03
   5.070354401111737E-03   5.121312310018855E-03   5.172782354424751E-03
   5.224769681376754E-03   5.277279489650889E-03   5.330317030271733E-03
   5.383887607037549E-03   5.437996577050658E-03   5.492649351253154E-03
   5.547851394967994E-03   5.603608228445556E-03   5.659925427415652E-03
   5.716808623645110E-03   5.774263505500960E-03   5.832295818519257E-03
   5.890911365979670E-03   5.950116009485788E-03   6.009915669551308E-03
   6.070316326192056E-03   6.131324019524039E-03   6.192944850367426E-03
   6.255184980856662E-03   6.318050635056649E-03   6.381548099585201E-03
   6.445683724241686E-03   6.510463922642022E-03   6.575895172860021E-03
   6.641984018075237E-03   6.708737067227266E-03   6.776160995676656E-03
   6.844262545872427E-03   6.913048528026358E-03   6.982525820793982E-03
   7.052701371962484E-03   7.123582199145447E-03   7.195175390484662E-03
   7.267488105358926E-03   7.340527575099985E-03   7.414301103715689E-03
   7.488816068620361E-03   7.564079921372597E-03   7.640100188420390E-03
   7.716884471853805E-03   7.794440450165156E-03   7.872775879016912E-03
   7.951898592017238E-03   8.031816501503378E-03   8.112537599332862E-03
   8.194069957682753E-03   8.276421729856823E-03   8.359601151100930E-03
   8.443616539426496E-03   8.528476296442376E-03   8.614188908194986E-03
   8.700762946016939E-03   8.788207067384146E-03   8.876530016781622E-03
   8.965740626577907E-03   9.055847817908335E-03   9.146860601567110E-03
   9.238788078908452E-03   9.331639442756700E-03   9.425423978325615E-03
   9.520151064146918E-03   9.615830173008112E-03   9.712470872899828E-03
   9.810082827972584E-03   9.908675799503244E-03   1.000825964687110E-02
   1.010884432854389E-02   1.021043990307360E-02   1.031305653010235E-02
   1.041670447137835E-02   1.052139409178210E-02   1.062713586036289E-02
   1.073394035138569E-02   1.084181824538861E-02   1.095078033025095E-02
   1.106083750227199E-02   1.117200076726066E-02   1.128428124163608E-02
   1.139769015353926E-02   1.151223884395591E-02   1.162793876785053E-02
   1.174480149531189E-02   1.186283871271016E-02   1.198206222386544E-02
   1.210248395122818E-02   1.222411593707149E-02   1.234697034469530E-02
   1.247105945964275E-02   1.259639569092875E-02   1.272299157228089E-02
   1.285085976339278E-02   1.298001305119008E-02   1.311046435110922E-02
   1.324222670838891E-02   1.337531329937464E-02   1.350973743283645E-02
   1.364551255129970E-02   1.378265223238938E-02   1.392117019018787E-02
   1.406108027660640E-02   1.420239648277019E-02   1.434513294041764E-02
   1.448930392331343E-02   1.463492384867602E-02   1.478200727861929E-02
   1.493056892160881E-02   1.508062363393266E-02   1.523218642118714E-02
   1.538527243977726E-02   1.553989699843248E-02   1.569607555973749E-02
   1.585382374167857E-02   1.601315731920539E-02   1.617409222580847E-02
   1.633664455511260E-02   1.650083056248614E-02   1.666666666666667E-02
   1.683416945140280E-02   1.700335566711259E-02   1.717424223255860E-02
   1.734684623653982E-02   1.752118493960041E-02   1.769727577575600E-02
   1.787513635423695E-02   1.805478446124931E-02   1.823623806175350E-02
   1.841951530126079E-02   1.860463450764784E-02   1.879161419298962E-02
   1.898047305541038E-02   1.917122998095380E-02   1.936390404547139E-02
   1.955851451653018E-02   1.975508085533943E-02   1.995362271869683E-02
   2.015415996095418E-02   2.035671263600282E-02   2.056130099927907E-02
   2.076794550978970E-02   2.097666683215797E-02   2.118748583869008E-02
   2.140042361146236E-02   2.161550144442953E-02   2.183274084555411E-02
   2.205216353895727E-02   2.227379146709122E-02   2.249764679293340E-02
   2.272375190220298E-02   2.295212940559929E-02   2.318280214106300E-02
   2.341579317605989E-02   2.365112580988761E-02   2.388882357600566E-02
   2.412891024438877E-02   2.437140982390376E-02   2.461634656471072E-02
   2.486374496068785E-02   2.511362975188090E-02   2.536602592697723E-02
   2.562095872580468E-02   2.587845364185559E-02   2.613853642483613E-02
   2.640123308324139E-02   2.666656988695602E-02   2.693457336988157E-02
   2.720527033258966E-02   2.747868784500214E-02   2.775485324909810E-02
   2.803379416164809E-02   2.831553847697582E-02   2.860011436974767E-02
   2.888755029778994E-02   2.917787500493503E-02   2.947111752389560E-02
   2.976730717916789E-02   3.006647358996428E-02   3.036864667317514E-02
   3.067385664636061E-02   3.098213403077240E-02   3.129350965440574E-02
   3.160801465508254E-02   3.192568048356494E-02   3.224653890670053E-02
   3.257062201059899E-02   3.289796220384079E-02   3.322859222071802E-02
   3.356254512450798E-02   3.389985431077921E-02   3.424055351073148E-02
   3.458467679456873E-02   3.493225857490609E-02   3.528333361021125E-02
   3.563793700828030E-02   3.599610422974857E-02   3.635787109163666E-02
   3.672327377093231E-02   3.709234880820782E-02   3.746513311127454E-02
   3.784166395887344E-02   3.822197900440305E-02   3.860611627968486E-02
   3.899411419876651E-02   3.938601156176322E-02   3.978184755873799E-02
   4.018166177362019E-02   4.058549418816460E-02   4.099338518594918E-02
   4.140537555641362E-02   4.182150649893829E-02   4.224181962696424E-02
   4.266635697215451E-02   4.309516098859748E-02   4.352827455705200E-02
   4.396574098923590E-02   4.440760403215697E-02   4.485390787248771E-02
   4.530469714098408E-02   4.576001691694860E-02   4.621991273273828E-02
   4.668443057831796E-02   4.715361690585937E-02   4.762751863438609E-02
   4.810618315446600E-02   4.858965833294995E-02   4.907799251775873E-02
   4.957123454271774E-02   5.006943373244054E-02   5.057263990726123E-02
   5.108090338821675E-02   5.159427500207857E-02   5.211280608643596E-02
   5.263654849482948E-02   5.316555460193641E-02   5.369987730880833E-02
   5.423957004816116E-02   5.478468678971861E-02   5.533528204560919E-02
   5.589141087581711E-02   5.645312889368895E-02   5.702049227149459E-02
   5.759355774604460E-02   5.817238262436402E-02   5.875702478942302E-02
   5.934754270592532E-02   5.994399542615465E-02   6.054644259588021E-02
   6.115494446032078E-02   6.176956187017001E-02   6.239035628768106E-02
   6.301738979281302E-02   6.365072508943892E-02   6.429042551161622E-02
   6.493655502992020E-02   6.558917825784129E-02   6.624836045824585E-02
   6.691416754990340E-02   6.758666611407795E-02   6.826592340118627E-02
   6.895200733752320E-02   6.964498653205409E-02   7.034493028327585E-02
   7.105190858614703E-02   7.176599213908683E-02   7.248725235104574E-02
   7.321576134864598E-02   7.395159198339442E-02   7.469481783896774E-02
   7.544551323857086E-02   7.620375325236929E-02   7.696961370499629E-02
   7.774317118313551E-02   7.852450304317908E-02   7.931368741896429E-02
   8.011080322958633E-02   8.091593018729057E-02   8.172914880544369E-02
   8.255054040658522E-02   8.338018713055975E-02   8.421817194273121E-02
   8.506457864227883E-02   8.591949187057807E-02   8.678299711966417E-02
   8.765518074078166E-02   8.853612995301945E-02   8.942593285203289E-02
   9.032467841885339E-02   9.123245652878675E-02   9.214935796040015E-02
   9.307547440460096E-02   9.401089847380538E-02   9.495572371119988E-02
   9.591004460009551E-02   9.687395657337645E-02   9.784755602304332E-02
   9.883094030985237E-02   9.982420777305198E-02   1.008274577402158E-01
   1.018407905371769E-01   1.028643074980592E-01   1.038981109754120E-01
   1.049423043504443E-01   1.059969920433638E-01   1.070622795238188E-01
   1.081382733214453E-01   1.092250810365192E-01   1.103228113507180E-01
   1.114315740379879E-01   1.125514799755215E-01   1.136826411548458E-01
   1.148251706930215E-01   1.159791828439545E-01   1.171447930098217E-01
   1.183221177526106E-01   1.195112748057770E-01   1.207123830860169E-01
   1.219255627051595E-01   1.231509349821775E-01   1.243886224553199E-01
   1.256387488943653E-01   1.269014393129995E-01   1.281768199813167E-01
   1.294650184384463E-01   1.307661635053075E-01   1.320803852974915E-01
   1.334078152382726E-01   1.347485860717510E-01   1.361028318761274E-01
   1.374706880771109E-01   1.388522914614617E-01   1.402477801906689E-01
   1.416572938147688E-01   1.430809732862983E-01   1.445189609743909E-01
   1.459714006790139E-01   1.474384376453480E-01   1.489202185783124E-01
   1.504168916572355E-01   1.519286065506719E-01   1.534555144313710E-01
   1.549977679913931E-01   1.565555214573797E-01   1.581289306059754E-01
   1.597181527794063E-01   1.613233469012139E-01   1.629446734921483E-01
   1.645822946862198E-01   1.662363742469121E-01   1.679070775835599E-01
   1.695945717678890E-01   1.712990255507241E-01   1.730206093788640E-01
   1.747594954121262E-01   1.765158575405629E-01   1.782898714018510E-01
   1.800817143988544E-01   1.818915657173663E-01   1.837196063440268E-01
   1.855660190844218E-01   1.874309885813641E-01   1.893147013333576E-01
   1.912173457132471E-01   1.931391119870567E-01   1.950801923330144E-01
   1.970407808607728E-01   1.990210736308185E-01   2.010212686740787E-01
   2.030415660117245E-01   2.050821676751735E-01   2.071432777262923E-01
   2.092251022778037E-01   2.113278495138981E-01   2.134517297110507E-01
   2.155969552590514E-01   2.177637406822427E-01   2.199523026609726E-01
   2.221628600532629E-01   2.243956339166948E-01   2.266508475305153E-01
   2.289287264179656E-01   2.312294983688319E-01   2.335533934622270E-01
   2.359006440895968E-01   2.382714849779601E-01   2.406661532133813E-01
   2.430848882646797E-01   2.455279320073761E-01   2.479955287478808E-01
   2.504879252479236E-01   2.530053707492318E-01   2.555481169984534E-01
   2.581164182723323E-01   2.607105314031362E-01   2.633307158043399E-01
   2.659772334965670E-01   2.686503491337923E-01   2.713503300298074E-01
   2.740774461849511E-01   2.768319703131118E-01   2.796141778689980E-01
   2.824243470756836E-01   2.852627589524313E-01   2.881296973427939E-01
   2.910254489429996E-01   2.939503033306223E-01   2.969045529935369E-01
   2.998884933591721E-01   3.029024228240511E-01   3.059466427836321E-01