<UPF version="2.0.1">
  <PP_INFO>
    Generated using "atomic" code by A. Dal Corso  v.7.2
    Author: D.C.
    Generation date: 18Apr2024
    Pseudopotential type: NC
    Element: Al
    Functional: PBE
    Suggested minimum cutoff for wavefunctions:   0. Ry
    Suggested minimum cutoff for charge density:   0. Ry
    The Pseudo was generated with a Scalar-Relativistic Calculation
    L component and cutoff radius for Local Potential:  1   1.7400
    Pseudopotential contains additional information for GIPAW reconstruction.
    Valence configuration: 
    nl pn  l   occ       Rcut    Rcut US       E pseu
    3S  1  0  2.00      1.740      1.740    -1.088544
    3P  2  1  0.00      2.639      2.639    -0.665426
    4S  2  0  0.00      6.174      6.174    -0.277534
    4P  3  1  0.00      7.771      7.771    -0.181611
    3D  3  2  0.00      1.740      1.740    -0.229243
    Generation configuration:
    3D  3  2  0.00      1.740      1.740    -0.229248
    3S  1  0  2.00      1.740      1.740    -1.088543
    3P  2  1  0.00      1.740      1.740    -0.665429
    Pseudization used: troullier-martins
    <PP_INPUTFILE>
@input
title = 'Al'
prefix = 'al'
zed = 13
dft = 'pbe'
rel = 1
iswitch = 3
beta = 0.2
xmin = -8, dx = 0.01
nld = 3, rlderiv = 3.2, eminld  = -5.0, emaxld  = 5.0, deld = 0.002
config = '[Ne] 3s2 3p0 3d0 4s0 4p0'
/
@inputp
pseudotype = 1
lloc = 1
tm = .true.
nlcc = .true.
file_core = 'al.core'
rcore = 1.4
file_pseudopw = 'Al.pbe-tm-gipaw-dc2024.UPF'
author = 'D.C.'
lgipaw_reconstruction = .true.
/
3
3D  3  2  0.0  0.00  1.74  1.74
3S  1  0  2.0  0.00  1.74  1.74
3P  2  1  0.0  0.00  1.74  1.74
@test
ecutmin = 10
ecutmax = 40
decut   = 5
/
5
3S  1  0  2.0  0.00  1.74  1.74
3P  2  1  0.0  0.00  1.74  1.74
4S  2  0  0.0  0.00  1.74  1.74
4P  3  1  0.0  0.00  1.74  1.74
3D  3  2  0.0  0.00  1.74  1.74
    </PP_INPUTFILE>
  </PP_INFO>
    <!-- END OF HUMAN READABLE SECTION -->
  <PP_HEADER generated="Generated using 'atomic' code by A. Dal Corso  v.7.2" author="D.C." date="18Apr2024" comment="" element="Al" pseudo_type="NC" relativistic="scalar" is_ultrasoft="false" is_paw="false" is_coulomb="false" has_so="false" has_wfc="false" has_gipaw="true" paw_as_gipaw="false" core_correction="true" functional="PBE" z_valence="3.00000000000000" total_psenergy="-4.31291786016684" wfc_cutoff="0.000000000000000E+000" rho_cutoff="0.000000000000000E+000" l_max="2" l_max_rho="4" l_local="1" mesh_size="1519" number_of_wfc="5" number_of_proj="2"/>
  <PP_MESH mesh="1519" dx="1.000000000000000E-002" xmin="-8.00000000000000" rmax="100.000000000000" zmesh="13.0000000000000">
    <PP_R>
   2.580481753096245E-05   2.606416025872509E-05   2.632610942423380E-05
   2.659069122262346E-05   2.685793211229434E-05   2.712785881755814E-05
   2.740049833131031E-05   2.767587791772947E-05   2.795402511500368E-05
   2.823496773808449E-05   2.851873388146833E-05   2.880535192200603E-05
   2.909485052174044E-05   2.938725863077282E-05   2.968260549015774E-05
   2.998092063482729E-05   3.028223389654448E-05   3.058657540688660E-05
   3.089397560025831E-05   3.120446521693514E-05   3.151807530613744E-05
   3.183483722913551E-05   3.215478266238561E-05   3.247794360069772E-05
   3.280435236043491E-05   3.313404158274519E-05   3.346704423682555E-05
   3.380339362321888E-05   3.414312337714416E-05   3.448626747185981E-05
   3.483286022206130E-05   3.518293628731248E-05   3.553653067551164E-05
   3.589367874639218E-05   3.625441621505887E-05   3.661877915555918E-05
   3.698680400449083E-05   3.735852756464533E-05   3.773398700868850E-05
   3.811321988287764E-05   3.849626411081622E-05   3.888315799724618E-05
   3.927394023187860E-05   3.966864989326260E-05   4.006732645269328E-05
   4.047000977815875E-05   4.087674013832715E-05   4.128755820657345E-05
   4.170250506504685E-05   4.212162220877893E-05   4.254495154983336E-05
   4.297253542149701E-05   4.340441658251337E-05   4.384063822135849E-05
   4.428124396055970E-05   4.472627786105812E-05   4.517578442661472E-05
   4.562980860826054E-05   4.608839580879216E-05   4.655159188731178E-05
   4.701944316381325E-05   4.749199642381415E-05   4.796929892303419E-05
   4.845139839212108E-05   4.893834304142347E-05   4.943018156581214E-05
   4.992696314954932E-05   5.042873747120737E-05   5.093555470863665E-05
   5.144746554398326E-05   5.196452116875726E-05   5.248677328895204E-05
   5.301427413021486E-05   5.354707644306943E-05   5.408523350819099E-05
   5.462879914173454E-05   5.517782770071642E-05   5.573237408845005E-05
   5.629249376003637E-05   5.685824272790920E-05   5.742967756743686E-05
   5.800685542257955E-05   5.858983401160364E-05   5.917867163285391E-05
   5.977342717058320E-05   6.037416010084090E-05   6.098093049742070E-05
   6.159379903786780E-05   6.221282700954703E-05   6.283807631577141E-05
   6.346960948199266E-05   6.410748966205357E-05   6.475178064450377E-05
   6.540254685897842E-05   6.605985338264133E-05   6.672376594669250E-05
   6.739435094294167E-05   6.807167543044728E-05   6.875580714222258E-05
   6.944681449200874E-05   7.014476658111663E-05   7.084973320533680E-05
   7.156178486191915E-05   7.228099275662278E-05   7.300742881083637E-05
   7.374116566877076E-05   7.448227670472327E-05   7.523083603041496E-05
   7.598691850240227E-05   7.675059972956246E-05   7.752195608065465E-05
   7.830106469195682E-05   7.908800347497921E-05   7.988285112425601E-05
   8.068568712521456E-05   8.149659176212386E-05   8.231564612612342E-05
   8.314293212333219E-05   8.397853248303930E-05   8.482253076597706E-05
   8.567501137267717E-05   8.653605955191056E-05   8.740576140921276E-05
   8.828420391549434E-05   8.917147491573780E-05   9.006766313778265E-05
   9.097285820119790E-05   9.188715062624425E-05   9.281063184292618E-05
   9.374339420013479E-05   9.468553097488315E-05   9.563713638163397E-05
   9.659830558172072E-05   9.756913469286453E-05   9.854972079878548E-05
   9.954016195891138E-05   1.005405572181837E-04   1.015510066169617E-04
   1.025716112010276E-04   1.036024730316904E-04   1.046436951959918E-04
   1.056953818170163E-04   1.067576380643022E-04   1.078305701643596E-04
   1.089142854112925E-04   1.100088921775288E-04   1.111144999246572E-04
   1.122312192143737E-04   1.133591617195382E-04   1.144984402353407E-04
   1.156491686905825E-04   1.168114621590680E-04   1.179854368711125E-04
   1.191712102251659E-04   1.203689007995513E-04   1.215786283643244E-04
   1.228005138932499E-04   1.240346795758987E-04   1.252812488298677E-04
   1.265403463131211E-04   1.278120979364565E-04   1.290966308760960E-04
   1.303940735864039E-04   1.317045558127325E-04   1.330282086043967E-04
   1.343651643277784E-04   1.357155566795643E-04   1.370795207001147E-04
   1.384571927869686E-04   1.398487107084824E-04   1.412542136176082E-04
   1.426738420658079E-04   1.441077380171095E-04   1.455560448623031E-04
   1.470189074332798E-04   1.484964720175161E-04   1.499888863727016E-04
   1.514962997415155E-04   1.530188628665510E-04   1.545567280053892E-04
   1.561100489458257E-04   1.576789810212490E-04   1.592636811261739E-04
   1.608643077319316E-04   1.624810209025165E-04   1.641139823105929E-04
   1.657633552536627E-04   1.674293046703943E-04   1.691119971571178E-04
   1.708116009844843E-04   1.725282861142926E-04   1.742622242164863E-04
   1.760135886863207E-04   1.777825546617023E-04   1.795692990407025E-04
   1.813740004992487E-04   1.831968395089900E-04   1.850379983553469E-04
   1.868976611557383E-04   1.887760138779936E-04   1.906732443589506E-04
   1.925895423232385E-04   1.945250994022504E-04   1.964801091533076E-04
   1.984547670790138E-04   2.004492706468076E-04   2.024638193087077E-04
   2.044986145212590E-04   2.065538597656785E-04   2.086297605682033E-04
   2.107265245206437E-04   2.128443613011422E-04   2.149834826951418E-04
   2.171441026165643E-04   2.193264371292026E-04   2.215307044683264E-04
   2.237571250625065E-04   2.260059215556577E-04   2.282773188293034E-04
   2.305715440250637E-04   2.328888265673704E-04   2.352293981864083E-04
   2.375934929412901E-04   2.399813472434611E-04   2.423931998803416E-04
   2.448292920392052E-04   2.472898673312977E-04   2.497751718161989E-04
   2.522854540264287E-04   2.548209649922995E-04   2.573819582670212E-04
   2.599686899520550E-04   2.625814187227254E-04   2.652204058540867E-04
   2.678859152470510E-04   2.705782134547791E-04   2.732975697093352E-04
   2.760442559486113E-04   2.788185468435197E-04   2.816207198254622E-04
   2.844510551140717E-04   2.873098357452360E-04   2.901973475994004E-04
   2.931138794301567E-04   2.960597228931184E-04   2.990351725750869E-04
   3.020405260235095E-04   3.050760837762360E-04   3.081421493915708E-04
   3.112390294786307E-04   3.143670337280051E-04   3.175264749427258E-04
   3.207176690695470E-04   3.239409352305412E-04   3.271965957550096E-04
   3.304849762117187E-04   3.338064054414538E-04   3.371612155899058E-04
   3.405497421408855E-04   3.439723239498717E-04   3.474293032778974E-04
   3.509210258257763E-04   3.544478407686732E-04   3.580101007910209E-04
   3.616081621217908E-04   3.652423845701137E-04   3.689131315612632E-04
   3.726207701729975E-04   3.763656711722674E-04   3.801482090522937E-04
   3.839687620700167E-04   3.878277122839214E-04   3.917254455922458E-04
   3.956623517715680E-04   3.996388245157870E-04   4.036552614754911E-04
   4.077120642977232E-04   4.118096386661463E-04   4.159483943416123E-04
   4.201287452031368E-04   4.243511092892905E-04   4.286159088399998E-04
   4.329235703387742E-04   4.372745245553534E-04   4.416692065887848E-04
   4.461080559109339E-04   4.505915164104321E-04   4.551200364370659E-04
   4.596940688466110E-04   4.643140710461208E-04   4.689805050396645E-04
   4.736938374745306E-04   4.784545396878902E-04   4.832630877539321E-04
   4.881199625314700E-04   4.930256497120294E-04   4.979806398684157E-04
   5.029854285037746E-04   5.080405161011393E-04   5.131464081734827E-04
   5.183036153142667E-04   5.235126532485033E-04   5.287740428843268E-04
   5.340883103650857E-04   5.394559871219558E-04   5.448776099270865E-04
   5.503537209472758E-04   5.558848677981894E-04   5.614716035991218E-04
   5.671144870283086E-04   5.728140823787952E-04   5.785709596148664E-04
   5.843856944290437E-04   5.902588682996531E-04   5.961910685489769E-04
   6.021828884019826E-04   6.082349270456494E-04   6.143477896888848E-04
   6.205220876230473E-04   6.267584382830756E-04   6.330574653092331E-04
   6.394197986094707E-04   6.458460744224214E-04   6.523369353810207E-04
   6.588930305767739E-04   6.655150156246642E-04   6.722035527287147E-04
   6.789593107482094E-04   6.857829652645811E-04   6.926751986489661E-04
   6.996367001304480E-04   7.066681658649749E-04   7.137702990049802E-04
   7.209438097696968E-04   7.281894155161787E-04   7.355078408110388E-04
   7.428998175029052E-04   7.503660847956080E-04   7.579073893220967E-04
   7.655244852191099E-04   7.732181342025835E-04   7.809891056438279E-04
   7.888381766464632E-04   7.967661321241304E-04   8.047737648789842E-04
   8.128618756809735E-04   8.210312733479173E-04   8.292827748263917E-04
   8.376172052734193E-04   8.460353981389908E-04   8.545381952494082E-04
   8.631264468914680E-04   8.718010118974913E-04   8.805627577312085E-04
   8.894125605745027E-04   8.983513054150349E-04   9.073798861347364E-04
   9.164992055992037E-04   9.257101757479826E-04   9.350137176857642E-04
   9.444107617744951E-04   9.539022477264151E-04   9.634891246980296E-04
   9.731723513850235E-04   9.829528961181363E-04   9.928317369599902E-04
   1.002809861802903E-03   1.012888268467673E-03   1.023067964803367E-03
   1.033349968788100E-03   1.043735308630841E-03   1.054225022874227E-03
   1.064820160498424E-03   1.075521781026024E-03   1.086330954627997E-03
   1.097248762230712E-03   1.108276295624027E-03   1.119414657570471E-03
   1.130664961915522E-03   1.142028333698987E-03   1.153505909267517E-03
   1.165098836388230E-03   1.176808274363501E-03   1.188635394146886E-03
   1.200581378460218E-03   1.212647421911884E-03   1.224834731116283E-03
   1.237144524814495E-03   1.249578033996144E-03   1.262136502022512E-03
   1.274821184750866E-03   1.287633350660049E-03   1.300574280977329E-03
   1.313645269806523E-03   1.326847624257405E-03   1.340182664576424E-03
   1.353651724278722E-03   1.367256150281497E-03   1.380997303038682E-03
   1.394876556677006E-03   1.408895299133398E-03   1.423054932293788E-03
   1.437356872133291E-03   1.451802548857807E-03   1.466393407047049E-03
   1.481130905798994E-03   1.496016518875800E-03   1.511051734851177E-03
   1.526238057259253E-03   1.541577004744924E-03   1.557070111215722E-03
   1.572718925995205E-03   1.588525013977890E-03   1.604489955785748E-03
   1.620615347926263E-03   1.636902802952090E-03   1.653353949622302E-03
   1.669970433065275E-03   1.686753914943201E-03   1.703706073618256E-03
   1.720828604320431E-03   1.738123219317067E-03   1.755591648084075E-03
   1.773235637478891E-03   1.791056951915155E-03   1.809057373539162E-03
   1.827238702408077E-03   1.845602756669937E-03   1.864151372745471E-03
   1.882886405511744E-03   1.901809728487645E-03   1.920923234021244E-03
   1.940228833479017E-03   1.959728457437001E-03   1.979424055873842E-03
   1.999317598365797E-03   2.019411074283690E-03   2.039706492991860E-03
   2.060205884049090E-03   2.080911297411569E-03   2.101824803637890E-03
   2.122948494096099E-03   2.144284481172847E-03   2.165834898484623E-03
   2.187601901091117E-03   2.209587665710726E-03   2.231794390938235E-03
   2.254224297464673E-03   2.276879628299385E-03   2.299762648994333E-03
   2.322875647870654E-03   2.346220936247499E-03   2.369800848673161E-03
   2.393617743158529E-03   2.417674001412901E-03   2.441972029082149E-03
   2.466514255989291E-03   2.491303136377466E-03   2.516341149155371E-03
   2.541630798145149E-03   2.567174612332777E-03   2.592975146120955E-03
   2.619034979584565E-03   2.645356718728670E-03   2.671942995749119E-03
   2.698796469295772E-03   2.725919824738357E-03   2.753315774435023E-03
   2.780987058003570E-03   2.808936442595417E-03   2.837166723172309E-03
   2.865680722785831E-03   2.894481292859708E-03   2.923571313474949E-03
   2.952953693657852E-03   2.982631371670924E-03   3.012607315306697E-03
   3.042884522184519E-03   3.073466020050301E-03   3.104354867079319E-03
   3.135554152182016E-03   3.167066995312904E-03   3.198896547782553E-03
   3.231045992572735E-03   3.263518544654722E-03   3.296317451310785E-03
   3.329445992458917E-03   3.362907480980842E-03   3.396705263053297E-03
   3.430842718482655E-03   3.465323261042909E-03   3.500150338817044E-03
   3.535327434541862E-03   3.570858065956250E-03   3.606745786152962E-03
   3.642994183933918E-03   3.679606884169105E-03   3.716587548159059E-03
   3.753939874000999E-03   3.791667596958629E-03   3.829774489835688E-03
   3.868264363353221E-03   3.907141066530655E-03   3.946408487070703E-03
   3.986070551748141E-03   4.026131226802490E-03   4.066594518334645E-03
   4.107464472707469E-03   4.148745176950463E-03   4.190440759168450E-03
   4.232555388954404E-03   4.275093277806391E-03   4.318058679548748E-03
   4.361455890757454E-03   4.405289251189794E-03   4.449563144218345E-03
   4.494281997269294E-03   4.539450282265219E-03   4.585072516072257E-03
   4.631153260951813E-03   4.677697125016768E-03   4.724708762692317E-03
   4.772192875181407E-03   4.820154210934860E-03   4.868597566126210E-03
   4.917527785131352E-03   4.966949761012959E-03   5.016868436009811E-03
   5.067288802030999E-03   5.118215901155142E-03   5.169654826134597E-03
   5.221610720904728E-03   5.274088781098303E-03   5.327094254565077E-03
   5.380632441896566E-03   5.434708696956125E-03   5.489328427414314E-03
   5.544497095289700E-03   5.600220217495045E-03   5.656503366389005E-03
   5.713352170333377E-03   5.770772314255921E-03   5.828769540218883E-03
   5.887349647993191E-03   5.946518495638445E-03   6.006282000088705E-03
   6.066646137744227E-03   6.127616945069077E-03   6.189200519194805E-03
   6.251403018530131E-03   6.314230663376831E-03   6.377689736551743E-03
   6.441786584015076E-03   6.506527615504979E-03   6.571919305178557E-03
   6.637968192259269E-03   6.704680881690872E-03   6.772064044797891E-03
   6.840124419952796E-03   6.908868813249818E-03   6.978304099185581E-03
   7.048437221346529E-03   7.119275193103330E-03   7.190825098312190E-03
   7.263094092023254E-03   7.336089401196127E-03   7.409818325422541E-03
   7.484288237656366E-03   7.559506584950885E-03   7.635480889203516E-03
   7.712218747907980E-03   7.789727834914107E-03   7.868015901195187E-03
   7.947090775623096E-03   8.026960365751156E-03   8.107632658604948E-03
   8.189115721480985E-03   8.271417702753461E-03   8.354546832689078E-03
   8.438511424270108E-03   8.523319874025683E-03   8.608980662871456E-03
   8.695502356957683E-03   8.782893608525884E-03   8.871163156774040E-03
   8.960319828730540E-03   9.050372540136865E-03   9.141330296339205E-03
   9.233202193188978E-03   9.325997417952432E-03   9.419725250229381E-03
   9.514395062881141E-03   9.610016322967877E-03   9.706598592695286E-03
   9.804151530370831E-03   9.902684891369556E-03   1.000220852910969E-02
   1.010273239603793E-02   1.020426654462475E-02   1.030682112836961E-02
   1.041040640281636E-02   1.051503272657876E-02   1.062071056237637E-02
   1.072745047808084E-02   1.083526314777269E-02   1.094415935280873E-02
   1.105414998290023E-02   1.116524603720183E-02   1.127745862541155E-02
   1.139079896888173E-02   1.150527840174117E-02   1.162090837202853E-02
   1.173770044283722E-02   1.185566629347165E-02   1.197481772061518E-02
   1.209516663950982E-02   1.221672508514775E-02   1.233950521347483E-02
   1.246351930260621E-02   1.258877975405416E-02   1.271529909396820E-02
   1.284308997438775E-02   1.297216517450734E-02   1.310253760195458E-02
   1.323422029408081E-02   1.336722641926501E-02   1.350156927823053E-02
   1.363726230537522E-02   1.377431907011487E-02   1.391275327824016E-02
   1.405257877328728E-02   1.419380953792226E-02   1.433645969533923E-02
   1.448054351067283E-02   1.462607539242465E-02   1.477306989390417E-02
   1.492154171468400E-02   1.507150570206995E-02   1.522297685258574E-02
   1.537597031347266E-02   1.553050138420427E-02   1.568658551801642E-02
   1.584423832345257E-02   1.600347556592465E-02   1.616431316928960E-02
   1.632676721744178E-02   1.649085395592138E-02   1.665658979353900E-02
   1.682399130401653E-02   1.699307522764448E-02   1.716385847295614E-02
   1.733635811841836E-02   1.751059141413945E-02   1.768657578359415E-02
   1.786432882536606E-02   1.804386831490751E-02   1.822521220631707E-02
   1.840837863413497E-02   1.859338591515665E-02   1.878025255026439E-02
   1.896899722627743E-02   1.915963881782064E-02   1.935219638921204E-02
   1.954668919636925E-02   1.974313668873508E-02   1.994155851122243E-02
   2.014197450617893E-02   2.034440471537107E-02   2.054886938198848E-02
   2.075538895266823E-02   2.096398407953944E-02   2.117467562228864E-02
   2.138748465024570E-02   2.160243244449076E-02   2.181954049998234E-02
   2.203883052770693E-02   2.226032445685004E-02   2.248404443698920E-02
   2.271001284030879E-02   2.293825226383749E-02   2.316878553170785E-02
   2.340163569743878E-02   2.363682604624087E-02   2.387438009734500E-02
   2.411432160635425E-02   2.435667456761949E-02   2.460146321663877E-02
   2.484871203248100E-02   2.509844574023381E-02   2.535068931347609E-02
   2.560546797677536E-02   2.586280720821026E-02   2.612273274191839E-02
   2.638527057066974E-02   2.665044694846597E-02   2.691828839316580E-02
   2.718882168913694E-02   2.746207388993440E-02   2.773807232100604E-02
   2.801684458242487E-02   2.829841855164941E-02   2.858282238631120E-02
   2.887008452703075E-02   2.916023370026146E-02   2.945329892116247E-02
   2.974930949650009E-02   3.004829502757856E-02   3.035028541320010E-02
   3.065531085265494E-02   3.096340184874122E-02   3.127458921081534E-02
   3.158890405787274E-02   3.190637782166011E-02   3.222704224981838E-02
   3.255092940905762E-02   3.287807168836360E-02   3.320850180223690E-02
   3.354225279396427E-02   3.387935803892301E-02   3.421985124791856E-02
   3.456376647055551E-02   3.491113809864275E-02   3.526200086963257E-02
   3.561638987009448E-02   3.597434053922380E-02   3.633588867238575E-02
   3.670107042469494E-02   3.706992231463097E-02   3.744248122769014E-02
   3.781878442007424E-02   3.819886952241611E-02   3.858277454354275E-02
   3.897053787427614E-02   3.936219829127251E-02   3.975779496089994E-02
   4.015736744315511E-02   4.056095569561913E-02   4.096860007745363E-02
   4.138034135343650E-02   4.179622069803847E-02   4.221627969954051E-02
   4.264056036419285E-02   4.306910512041554E-02   4.350195682304130E-02
   4.393915875760116E-02   4.438075464465283E-02   4.482678864415305E-02
   4.527730535987347E-02   4.573234984386113E-02   4.619196760094355E-02
   4.665620459327949E-02   4.712510724495507E-02   4.759872244662625E-02
   4.807709756020777E-02   4.856028042360969E-02   4.904831935552102E-02
   4.954126316024166E-02   5.003916113256283E-02   5.054206306269668E-02
   5.105001924125533E-02   5.156308046427997E-02   5.208129803832037E-02
   5.260472378556584E-02   5.313341004902727E-02   5.366740969777165E-02
   5.420677613220874E-02   5.475156328943152E-02   5.530182564860971E-02
   5.585761823643775E-02   5.641899663263766E-02   5.698601697551677E-02
   5.755873596758194E-02   5.813721088120963E-02   5.872149956437334E-02
   5.931166044642819E-02   5.990775254395422E-02   6.050983546665794E-02
   6.111796942333341E-02   6.173221522788298E-02   6.235263430539901E-02
   6.297928869830628E-02   6.361224107256637E-02   6.425155472394402E-02
   6.489729358433721E-02   6.554952222817009E-02   6.620830587885064E-02
   6.687371041529278E-02   6.754580237850473E-02   6.822464897824287E-02
   6.891031809973298E-02   6.960287831045844E-02   7.030239886701756E-02
   7.100894972204891E-02   7.172260153122684E-02   7.244342566032685E-02
   7.317149419236263E-02   7.390687993479408E-02   7.464965642680831E-02
   7.539989794667351E-02   7.615767951916678E-02   7.692307692307693E-02
   7.769616669878215E-02   7.847702615590425E-02   7.926573338103972E-02
   8.006236724556839E-02   8.086700741354037E-02   8.167973434964308E-02
   8.250062932724744E-02   8.332977443653528E-02   8.416725259270848E-02
   8.501314754428056E-02   8.586754388145158E-02   8.673052704456745E-02
   8.760218333266329E-02   8.848259991209446E-02   8.937186482525258E-02
   9.027006699937004E-02   9.117729625541272E-02   9.209364331706230E-02
   9.301919981978853E-02   9.395405832001300E-02   9.489831230436495E-02
   9.585205619902935E-02   9.681538537919064E-02   9.778839617856962E-02
   9.877118589905703E-02   9.976385282044396E-02   1.007664962102498E-01
   1.017792163336489E-01   1.028021144634979E-01   1.038352928904619E-01
   1.048788549332445E-01   1.059329049489198E-01   1.069975483433677E-01
   1.080728915818149E-01   1.091590421994813E-01   1.102561088123338E-01
   1.113642011279481E-01   1.124834299564789E-01   1.136139072217418E-01
   1.147557459724054E-01   1.159090603932964E-01   1.170739658168180E-01
   1.182505787344832E-01   1.194390168085643E-01   1.206393988838591E-01
   1.218518449995756E-01   1.230764764013355E-01   1.243134155532995E-01
   1.255627861504138E-01   1.268247131307791E-01   1.280993226881451E-01
   1.293867422845297E-01   1.306871006629653E-01   1.320005278603739E-01
   1.333271552205690E-01   1.346671154073925E-01   1.360205424179797E-01
   1.373875715961595E-01   1.387683396459890E-01   1.401629846454237E-01
   1.415716460601259E-01   1.429944647574111E-01   1.444315830203342E-01
   1.458831445619194E-01   1.473492945395305E-01   1.488301795693870E-01
   1.503259477412261E-01   1.518367486331113E-01   1.533627333263909E-01
   1.549040544208061E-01   1.564608660497502E-01   1.580333238956838E-01
   1.596215852057018E-01   1.612258088072589E-01   1.628461551240519E-01
   1.644827861920629E-01   1.661358656757626E-01   1.678055588844769E-01
   1.694920327889184E-01   1.711954560378822E-01   1.729159989751133E-01
   1.746538336563390E-01   1.764091338664756E-01   1.781820751370070E-01
   1.799728347635377E-01   1.817815918235226E-01   1.836085271941753E-01
   1.854538235705547E-01   1.873176654838366E-01   1.892002393197654E-01
   1.911017333372936E-01   1.930223376874075E-01   1.949622444321426E-01
   1.969216475637900E-01   1.989007430242961E-01   2.008997287248554E-01
   2.029188045657042E-01   2.049581724561091E-01   2.070180363345587E-01
   2.090986021891573E-01   2.112000780782243E-01   2.133226741510998E-01
   2.154666026691598E-01   2.176320780270432E-01   2.198193167740897E-01
   2.220285376359969E-01   2.242599615366921E-01   2.265138116204249E-01
   2.287903132740819E-01   2.310896941497255E-01   2.334121841873595E-01
   2.357580156379235E-01   2.381274230865165E-01   2.405206434758583E-01
   2.429379161299822E-01   2.453794827781681E-01   2.478455875791153E-01
   2.503364771453592E-01   2.528524005679321E-01   2.553936094412732E-01
   2.579603578883867E-01   2.605529025862567E-01   2.631715027915135E-01
   2.658164203663597E-01   2.684879198047571E-01   2.711862682588755E-01
   2.739117355658092E-01   2.766645942745599E-01   2.794451196732933E-01
   2.822535898168651E-01   2.850902855546308E-01   2.879554905585280E-01
   2.908494913514447E-01   2.937725773358719E-01   2.967250408228441E-01
   2.997071770611702E-01   3.027192842669598E-01   3.057616636534424E-01
   3.088346194610926E-01   3.119384589880520E-01   3.150734926208597E-01
   3.182400338654917E-01   3.214383993787112E-01   3.246689089997347E-01
   3.279318857822171E-01   3.312276560265546E-01   3.345565493125188E-01
   3.379188985322122E-01   3.413150399233589E-01   3.447453131029281E-01
   3.482100611010963E-01   3.517096303955505E-01   3.552443709461368E-01
   3.588146362298562E-01   3.624207832762111E-01   3.660631727029121E-01
   3.697421687519369E-01   3.734581393259565E-01   3.772114560251247E-01
   3.810024941842395E-01   3.848316329102758E-01   3.886992551202978E-01
   3.926057475797485E-01   3.965515009411295E-01   4.005369097830654E-01
   4.045623726497615E-01   4.086282920908590E-01   4.127350747016903E-01
   4.168831311639387E-01   4.210728762867081E-01   4.253047290480007E-01
   4.295791126366198E-01   4.338964544944864E-01   4.382571863593840E-01
   4.426617443081332E-01   4.471105688001990E-01   4.516041047217384E-01
   4.561428014300878E-01   4.607271127987014E-01   4.653574972625346E-01
   4.700344178638933E-01   4.747583422987350E-01   4.795297429634398E-01
   4.843490970020505E-01   4.892168863539869E-01   4.941335978022408E-01
   4.990997230220552E-01   5.041157586300887E-01   5.091822062340832E-01
   5.142995724830209E-01   5.194683691177914E-01   5.246891130223653E-01
   5.299623262754840E-01   5.352885362028668E-01   5.406682754299462E-01
   5.461020819351261E-01   5.515904991035859E-01   5.571340757816166E-01
   5.627333663315052E-01   5.683889306869732E-01   5.741013344091687E-01
   5.798711487432245E-01   5.856989506753822E-01   5.915853229906927E-01
   5.975308543312906E-01   6.035361392552656E-01   6.096017782961146E-01
   6.157283780227965E-01   6.219165511003891E-01   6.281669163513575E-01
   6.344800988174352E-01   6.408567298221308E-01   6.472974470338566E-01
   6.538028945297021E-01   6.603737228598382E-01   6.670105891125735E-01
   6.737141569800642E-01   6.804850968246831E-01   6.873240857460572E-01
   6.942318076487793E-01   7.012089533107934E-01   7.082562204524814E-01
   7.153743138064299E-01   7.225639451879065E-01   7.298258335660405E-01
   7.371607051357212E-01   7.445692933902183E-01   7.520523391945306E-01
   7.596105908594762E-01   7.672448042165174E-01   7.749557426933531E-01
   7.827441773902568E-01   7.906108871571883E-01   7.985566586716802E-01
   8.065822865175054E-01   8.146885732641365E-01   8.228763295470048E-01
   8.311463741485590E-01   8.394995340801523E-01   8.479366446647388E-01
   8.564585496204082E-01   8.650661011447572E-01   8.737601600001118E-01
   8.825415955996021E-01   8.914112860941079E-01   9.003701184600665E-01
   9.094189885881823E-01   9.185588013730084E-01   9.277904708034400E-01
   9.371149200541133E-01   9.465330815777239E-01   9.560458971982722E-01
   9.656543182052479E-01   9.753593054487606E-01   9.851618294356186E-01
   9.950628704263911E-01   1.005063418533428E+00   1.015164473819874E+00
   1.025367046399675E+00   1.035672156538591E+00   1.046080834756224E+00
   1.056594121929072E+00   1.067213069394609E+00   1.077938739056432E+00
   1.088772203490447E+00   1.099714546052123E+00   1.110766860984837E+00
   1.121930253529291E+00   1.133205840034043E+00   1.144594748067142E+00
   1.156098116528878E+00   1.167717095765685E+00   1.179452847685169E+00
   1.191306545872303E+00   1.203279375706782E+00   1.215372534481569E+00
   1.227587231522617E+00   1.239924688309811E+00   1.252386138599111E+00
   1.264972828545928E+00   1.277686016829747E+00   1.290526974779991E+00
   1.303496986503155E+00   1.316597349011221E+00   1.329829372351356E+00
   1.343194379736921E+00   1.356693707679795E+00   1.370328706124016E+00
   1.384100738580794E+00   1.398011182264851E+00   1.412061428232148E+00
   1.426252881518990E+00   1.440586961282532E+00   1.455065100942695E+00
   1.469688748325513E+00   1.484459365807906E+00   1.499378430463933E+00
   1.514447434212493E+00   1.529667883966518E+00   1.545041301783667E+00
   1.560569225018533E+00   1.576253206476379E+00   1.592094814568422E+00
   1.608095633468675E+00   1.624257263272356E+00   1.640581320155917E+00
   1.657069436538648E+00   1.673723261245929E+00   1.690544459674109E+00
   1.707534713957048E+00   1.724695723134333E+00   1.742029203321186E+00
   1.759536887880064E+00   1.777220527594015E+00   1.795081890841748E+00
   1.813122763774471E+00   1.831344950494513E+00   1.849750273235730E+00
   1.868340572545734E+00   1.887117707469952E+00   1.906083555737517E+00
   1.925240013949064E+00   1.944588997766377E+00   1.964132442103964E+00