<UPF version="2.0.1">
  <PP_INFO>
    Generated using "atomic" code by A. Dal Corso  v.6.8
    Author: D.C.
    Generation date: 25Oct2024
    Pseudopotential type: USPP
    Element: Tb
    Functional: PBE
    Suggested minimum cutoff for wavefunctions:  69. Ry
    Suggested minimum cutoff for charge density: 277. Ry
    The Pseudo was generated with a Scalar-Relativistic Calculation
    L component and cutoff radius for Local Potential:  2   2.1000
    Pseudopotential contains additional information for GIPAW reconstruction.
    Valence configuration: 
    nl pn  l   occ       Rcut    Rcut US       E pseu
    4F  4  3  9.00      1.100      2.000    -0.222653
    5F  5  3  0.00      1.100      2.000     0.000360
    5P  2  1  6.00      1.100      1.800    -1.824928
    6P  3  1  0.00      1.100      1.800    -0.086127
    5S  1  0  2.00      1.100      1.600    -3.489982
    6S  2  0  2.00      1.100      1.600    -0.272281
    5D  3  2  0.00      4.258      4.684    -0.095562
    Generation configuration:
    4F  4  3  9.00      1.100      2.000    -0.222646
    5F  5  3  0.00      1.100      2.000     0.500000
    5P  2  1  6.00      1.100      1.800    -1.824923
    6P  3  1  0.00      1.100      1.800     0.500000
    5S  1  0  2.00      1.100      1.600    -3.489979
    6S  2  0  2.00      1.100      1.600    -0.272282
    5D  3  2  0.00      2.100      2.100    -0.095563
    Pseudization used: troullier-martins
    <PP_INPUTFILE>
@input
title = 'Tb'
prefix = 'tb'
verbosity = 'high'
zed = 65
dft = 'pbe'
rel = 1
iswitch = 3
beta = 0.2
xmin = -8.0, dx = 0.01
nld = 4, rlderiv = 3.4, eminld  = -5.0, emaxld  = 5.0, deld = 0.002
/
16
1S  1  0   2.0
2S  2  0   2.0
2P  2  1   6.0
3S  3  0   2.0
3P  3  1   6.0
3D  3  2  10.0
4S  4  0   2.0
4P  4  1   6.0
4D  4  2  10.0
5S  5  0   2.0
5P  5  1   6.0
5D  5  2   0.0
4F  4  3   9.0
6S  6  0   2.0
6P  6  1   0.0
5F  5  3   0.0
@inputp
pseudotype = 3
lloc = 2
rcloc = 2.1
tm = .true.
nlcc = .true.
new_core_ps = .true.
rcore = 1.1
file_core = 'tb.core'
file_pseudopw = 'Tb.pbe-rrkjus-semi-gipaw-dc.UPF'
lgipaw_reconstruction = .true.
!upf_v1_format = .true.
author = 'D.C.'
/
7
4F  4  3  9.0  0.00  1.10  2.00
5F  5  3  0.0  0.50  1.10  2.00
5P  2  1  6.0  0.00  1.10  1.80
6P  3  1  0.0  0.50  1.10  1.80
5S  1  0  2.0  0.00  1.10  1.60
6S  2  0  2.0  0.00  1.10  1.60
5D  3  2  0.0  0.00  2.10  2.10
@test
ecutmin = 20
ecutmax = 60
decut   = 5
/
7
4F  4  3  9.0  0.00  1.10  2.00
5F  5  3  0.0  0.50  1.10  2.00
5P  2  1  6.0  0.00  1.10  1.80
6P  3  1  0.0  0.50  1.10  1.80
5S  1  0  2.0  0.00  1.10  1.60
6S  2  0  2.0  0.00  1.10  1.60
5D  3  2  0.0  0.00  2.10  2.10
    </PP_INPUTFILE>
  </PP_INFO>
    <!-- END OF HUMAN READABLE SECTION -->
  <PP_HEADER generated="Generated using 'atomic' code by A. Dal Corso  v.6.8" author="D.C." date="25Oct2024" comment="" element="Tb" pseudo_type="USPP" relativistic="scalar" is_ultrasoft="true" is_paw="false" is_coulomb="false" has_so="false" has_wfc="false" has_gipaw="true" paw_as_gipaw="false" core_correction="true" functional="PBE" z_valence="19.0000000000000" total_psenergy="-290.343643306057" wfc_cutoff="69.1530624693156" rho_cutoff="276.612249877262" l_max="3" l_max_rho="6" l_local="2" mesh_size="1679" number_of_wfc="7" number_of_proj="6"/>
  <PP_MESH mesh="1679" dx="1.000000000000000E-002" xmin="-8.00000000000000" rmax="100.000000000000" zmesh="65.0000000000000">
    <PP_R>
   5.160963506192490E-06   5.212832051745017E-06   5.265221884846760E-06
   5.318138244524691E-06   5.371586422458868E-06   5.425571763511627E-06
   5.480099666262062E-06   5.535175583545893E-06   5.590805023000736E-06
   5.646993547616898E-06   5.703746776293665E-06   5.761070384401205E-06
   5.818970104348089E-06   5.877451726154565E-06   5.936521098031549E-06
   5.996184126965459E-06   6.056446779308897E-06   6.117315081377321E-06
   6.178795120051662E-06   6.240893043387028E-06   6.303615061227490E-06
   6.366967445827102E-06   6.430956532477122E-06   6.495588720139543E-06
   6.560870472086982E-06   6.626808316549039E-06   6.693408847365110E-06
   6.760678724643776E-06   6.828624675428831E-06   6.897253494371963E-06
   6.966572044412260E-06   7.036587257462497E-06   7.107306135102328E-06
   7.178735749278437E-06   7.250883243011775E-06   7.323755831111836E-06
   7.397360800898165E-06   7.471705512929065E-06   7.546797401737700E-06
   7.622643976575528E-06   7.699252822163243E-06   7.776631599449236E-06
   7.854788046375720E-06   7.933729978652520E-06   8.013465290538655E-06
   8.094001955631750E-06   8.175348027665430E-06   8.257511641314689E-06
   8.340501013009369E-06   8.424324441755785E-06   8.508990309966671E-06
   8.594507084299402E-06   8.680883316502674E-06   8.768127644271698E-06
   8.856248792111940E-06   8.945255572211624E-06   9.035156885322942E-06
   9.125961721652109E-06   9.217679161758432E-06   9.310318377462358E-06
   9.403888632762650E-06   9.498399284762830E-06   9.593859784606839E-06
   9.690279678424216E-06   9.787668608284695E-06   9.886036313162429E-06
   9.985392629909864E-06   1.008574749424147E-05   1.018711094172733E-05
   1.028949310879665E-05   1.039290423375145E-05   1.049735465779041E-05
   1.060285482604297E-05   1.070941528861389E-05   1.081704670163820E-05
   1.092575982834691E-05   1.103556554014328E-05   1.114647481769001E-05
   1.125849875200727E-05   1.137164854558184E-05   1.148593551348737E-05
   1.160137108451591E-05   1.171796680232073E-05   1.183573432657078E-05
   1.195468543411664E-05   1.207483202016818E-05   1.219618609948414E-05
   1.231875980757356E-05   1.244256540190941E-05   1.256761526315428E-05
   1.269392189639853E-05   1.282149793241071E-05   1.295035612890075E-05
   1.308050937179568E-05   1.321197067652827E-05   1.334475318933850E-05
   1.347887018858833E-05   1.361433508608946E-05   1.375116142844452E-05
   1.388936289840175E-05   1.402895331622333E-05   1.416994664106736E-05
   1.431235697238383E-05   1.445619855132456E-05   1.460148576216727E-05
   1.474823313375415E-05   1.489645534094465E-05   1.504616720608299E-05
   1.519738370048045E-05   1.535011994591249E-05   1.550439121613093E-05
   1.566021293839137E-05   1.581760069499584E-05   1.597657022485120E-05
   1.613713742504291E-05   1.629931835242477E-05   1.646312922522468E-05
   1.662858642466644E-05   1.679570649660786E-05   1.696450615319541E-05
   1.713500227453543E-05   1.730721191038211E-05   1.748115228184255E-05
   1.765684078309887E-05   1.783429498314756E-05   1.801353262755653E-05
   1.819457164023958E-05   1.837743012524885E-05   1.856212636858524E-05
   1.874867884002696E-05   1.893710619497663E-05   1.912742727632679E-05
   1.931966111634414E-05   1.951382693857291E-05   1.970994415975710E-05
   1.990803239178228E-05   2.010811144363673E-05   2.031020132339235E-05
   2.051432224020553E-05   2.072049460633807E-05   2.092873903919837E-05
   2.113907636340326E-05   2.135152761286044E-05   2.156611403287191E-05
   2.178285708225849E-05   2.200177843550576E-05   2.222289998493143E-05
   2.244624384287475E-05   2.267183234390763E-05   2.289968804706814E-05
   2.312983373811650E-05   2.336229243181359E-05   2.359708737422251E-05
   2.383424204503317E-05   2.407378015991025E-05   2.431572567286488E-05
   2.456010277864998E-05   2.480693591517975E-05   2.505624976597355E-05
   2.530806926262423E-05   2.556241958729129E-05   2.581932617521919E-05
   2.607881471728078E-05   2.634091116254650E-05   2.660564172087934E-05
   2.687303286555569E-05   2.714311133591285E-05   2.741590414002295E-05
   2.769143855739371E-05   2.796974214169648E-05   2.825084272352165E-05
   2.853476841316159E-05   2.882154760342190E-05   2.911120897246061E-05
   2.940378148665597E-05   2.969929440350322E-05   2.999777727454032E-05
   3.029925994830310E-05   3.060377257331021E-05   3.091134560107785E-05
   3.122200978916514E-05   3.153579620424980E-05   3.185273622523478E-05
   3.217286154638631E-05   3.249620418050330E-05   3.282279646211859E-05
   3.315267105073254E-05   3.348586093407885E-05   3.382239943142356E-05
   3.416232019689686E-05   3.450565722285852E-05   3.485244484329726E-05
   3.520271773726415E-05   3.555651093234045E-05   3.591385980814051E-05
   3.627480009984973E-05   3.663936790179801E-05   3.700759967106938E-05
   3.737953223114765E-05   3.775520277559872E-05   3.813464887179013E-05
   3.851790846464769E-05   3.890501988045008E-05   3.929602183066151E-05
   3.969095341580277E-05   4.008985412936151E-05   4.049276386174154E-05
   4.089972290425180E-05   4.131077195313570E-05   4.172595211364067E-05
   4.214530490412874E-05   4.256887226022844E-05   4.299669653902837E-05
   4.342882052331287E-05   4.386528742584053E-05   4.430614089366528E-05
   4.475142501250129E-05   4.520118431113155E-05   4.565546376586068E-05
   4.611430880501275E-05   4.657776531347408E-05   4.704587963728165E-05
   4.751869858825803E-05   4.799626944869223E-05   4.847863997606833E-05
   4.896585840784103E-05   4.945797346625954E-05   4.995503436323979E-05
   5.045709080528574E-05   5.096419299845989E-05   5.147639165340423E-05
   5.199373799041100E-05   5.251628374454508E-05   5.304408117081733E-05
   5.357718304941020E-05   5.411564269095582E-05   5.465951394186705E-05
   5.520885118972227E-05   5.576370936870394E-05   5.632414396509244E-05
   5.689021102281434E-05   5.746196714904719E-05   5.803946951988008E-05
   5.862277588603134E-05   5.921194457862369E-05   5.980703451501739E-05
   6.040810520470191E-05   6.101521675524721E-05   6.162842987831415E-05
   6.224780589572613E-05   6.287340674560102E-05   6.350529498854517E-05
   6.414353381390940E-05   6.478818704610823E-05   6.543931915100193E-05
   6.609699524234374E-05   6.676128108829075E-05   6.743224311798116E-05
   6.810994842817709E-05   6.879446478997434E-05   6.948586065557950E-05
   7.018420516515527E-05   7.088956815373465E-05   7.160202015820418E-05
   7.232163242435816E-05   7.304847691402273E-05   7.378262631225264E-05
   7.452415403459949E-05   7.527313423445348E-05   7.602964181045873E-05
   7.679375241400334E-05   7.756554245678429E-05   7.834508911844916E-05
   7.913247035431359E-05   7.992776490315740E-05   8.073105229509822E-05
   8.154241285954465E-05   8.236192773322928E-05   8.318967886832246E-05
   8.402574904062737E-05   8.487022185785810E-05   8.572318176799996E-05
   8.658471406775485E-05   8.745490491107070E-05   8.833384131775695E-05
   8.922161118218679E-05   9.011830328208642E-05   9.102400728741319E-05
   9.193881376932219E-05   9.286281420922415E-05   9.379610100793289E-05
   9.473876749490612E-05   9.569090793757804E-05   9.665261755078642E-05
   9.762399250629400E-05   9.860512994240590E-05   9.959612797368315E-05
   1.005970857007549E-04   1.016081032202279E-04   1.026292816346965E-04
   1.036607230628533E-04   1.047025306497007E-04   1.057548085768654E-04
   1.068176620730171E-04   1.078911974243912E-04   1.089755219854173E-04
   1.100707441894552E-04   1.111769735596379E-04   1.122943207198243E-04
   1.134228974056617E-04   1.145628164757591E-04   1.157141919229733E-04
   1.168771388858087E-04   1.180517736599306E-04   1.192382137097954E-04
   1.204365776803965E-04   1.216469854091299E-04   1.228695579377770E-04
   1.241044175246094E-04   1.253516876566151E-04   1.266114930618466E-04
   1.278839597218941E-04   1.291692148844843E-04   1.304673870762041E-04
   1.317786061153548E-04   1.331030031249328E-04   1.344407105457429E-04
   1.357918621496419E-04   1.371565930529162E-04   1.385350397297932E-04
   1.399273400260896E-04   1.413336331729950E-04   1.427540598009961E-04
   1.441887619539394E-04   1.456378831032357E-04   1.471015681622078E-04
   1.485799635005811E-04   1.500732169591216E-04   1.515814778644193E-04
   1.531048970438220E-04   1.546436268405167E-04   1.561978211287656E-04
   1.577676353292927E-04   1.593532264248261E-04   1.609547529757968E-04
   1.625723751361947E-04   1.642062546695835E-04   1.658565549652784E-04
   1.675234410546839E-04   1.692070796277982E-04   1.709076390498816E-04
   1.726252893782936E-04   1.743602023794983E-04   1.761125515462417E-04
   1.778825121149006E-04   1.796702610830070E-04   1.814759772269473E-04
   1.832998411198407E-04   1.851420351495965E-04   1.870027435371529E-04
   1.888821523548990E-04   1.907804495452830E-04   1.926978249396059E-04
   1.946344702770047E-04   1.965905792236273E-04   1.985663473919980E-04
   2.005619723605805E-04   2.025776536935346E-04   2.046135929606733E-04
   2.066699937576200E-04   2.087470617261682E-04   2.108450045748453E-04
   2.129640320996848E-04   2.151043562052047E-04   2.172661909255994E-04
   2.194497524461424E-04   2.216552591248054E-04   2.238829315140942E-04
   2.261329923831044E-04   2.284056667397974E-04   2.307011818535034E-04
   2.330197672776460E-04   2.353616548727003E-04   2.377270788293772E-04
   2.401162756920435E-04   2.425294843823767E-04   2.449669462232567E-04
   2.474289049628989E-04   2.499156067992288E-04   2.524273004045024E-04
   2.549642369501731E-04   2.575266701320097E-04   2.601148561954658E-04
   2.627290539613045E-04   2.653695248514810E-04   2.680365329152849E-04
   2.707303448557445E-04   2.734512300562994E-04   2.761994606077364E-04
   2.789753113354011E-04   2.817790598266796E-04   2.846109864587576E-04
   2.874713744266582E-04   2.903605097715614E-04   2.932786814094098E-04
   2.962261811597988E-04   2.992033037751600E-04   3.022103469702354E-04
   3.052476114518506E-04   3.083154009489848E-04   3.114140222431443E-04
   3.145437851990410E-04   3.177050027955779E-04   3.208979911571495E-04
   3.241230695852527E-04   3.273805605904181E-04   3.306707899244603E-04
   3.339940866130549E-04   3.373507829886402E-04   3.407412147236512E-04
   3.441657208640862E-04   3.476246438634133E-04   3.511183296168149E-04
   3.546471274957782E-04   3.582113903830309E-04   3.618114747078324E-04
   3.654477404816153E-04   3.691205513339875E-04   3.728302745490942E-04
   3.765772811023488E-04   3.803619456975290E-04   3.841846468042487E-04
   3.880457666958034E-04   3.919456914874003E-04   3.958848111747683E-04
   3.998635196731594E-04   4.038822148567380E-04   4.079412985983720E-04
   4.120411768098181E-04   4.161822594823139E-04   4.203649607275780E-04
   4.245896988192198E-04   4.288568962345694E-04   4.331669796969246E-04
   4.375203802182234E-04   4.419175331421451E-04   4.463588781876469E-04
   4.508448594929346E-04   4.553759256598771E-04   4.599525297988665E-04
   4.645751295741308E-04   4.692441872494997E-04   4.739601697346322E-04
   4.787235486317057E-04   4.835348002825801E-04   4.883944058164298E-04
   4.933028511978582E-04   4.982606272754931E-04   5.032682298310742E-04
   5.083261596290297E-04   5.134349224665554E-04   5.185950292241911E-04
   5.238069959169130E-04   5.290713437457340E-04   5.343885991498238E-04
   5.397592938591545E-04   5.451839649476714E-04   5.506631548870045E-04
   5.561974116007140E-04   5.617872885190833E-04   5.674333446344618E-04
   5.731361445571663E-04   5.788962585719415E-04   5.847142626949897E-04
   5.905907387315704E-04   5.965262743341847E-04   6.025214630613394E-04
   6.085769044369037E-04   6.146932040100603E-04   6.208709734158638E-04
   6.271108304364033E-04   6.334133990625808E-04   6.397793095565105E-04
   6.462091985145469E-04   6.527037089309444E-04   6.592634902621569E-04
   6.658891984917834E-04   6.725814961961684E-04   6.793410526106594E-04
   6.861685436965310E-04   6.930646522085819E-04   7.000300677634087E-04
   7.070654869083723E-04   7.141716131912500E-04   7.213491572305924E-04
   7.285988367867835E-04   7.359213768338210E-04   7.433175096318119E-04
   7.507879748001997E-04   7.583335193917257E-04   7.659548979671376E-04
   7.736528726706441E-04   7.814282133061311E-04   7.892816974141405E-04
   7.972141103496282E-04   8.052262453604982E-04   8.133189036669291E-04
   8.214928945414939E-04   8.297490353900926E-04   8.380881518336901E-04
   8.465110777908809E-04   8.550186555612783E-04   8.636117359097496E-04
   8.722911781514908E-04   8.810578502379589E-04   8.899126288436690E-04
   8.988563994538588E-04   9.078900564530437E-04   9.170145032144514E-04
   9.262306521903626E-04   9.355394250033535E-04   9.449417525384634E-04
   9.544385750362813E-04   9.640308421869720E-04   9.737195132252420E-04
   9.835055570262703E-04   9.933899522025919E-04   1.003373687201962E-03
   1.013457760406200E-03   1.023643180231029E-03   1.033930965226919E-03
   1.044322144180946E-03   1.054817756219661E-03   1.065418850913015E-03
   1.076126488379313E-03   1.086941739391225E-03   1.097865685482863E-03
   1.108899419057940E-03   1.120044043499009E-03   1.131300673277801E-03
   1.142670434066676E-03   1.154154462851184E-03   1.165753908043777E-03
   1.177469929598638E-03   1.189303699127689E-03   1.201256400017741E-03
   1.213329227548845E-03   1.225523389013816E-03   1.237840103838961E-03
   1.250280603706026E-03   1.262846132675366E-03   1.275537947310349E-03
   1.288357316803015E-03   1.301305523100996E-03   1.314383861035711E-03
   1.327593638451854E-03   1.340936176338174E-03   1.354412808959578E-03
   1.368024883990559E-03   1.381773762649964E-03   1.395660819837116E-03
   1.409687444269306E-03   1.423855038620666E-03   1.438165019662438E-03
   1.452618818404651E-03   1.467217880239226E-03   1.481963665084508E-03
   1.496857647531273E-03   1.511901316990177E-03   1.527096177840703E-03
   1.542443749581596E-03   1.557945566982821E-03   1.573603180239037E-03
   1.589418155124619E-03   1.605392073150231E-03   1.621526531720990E-03
   1.637823144296197E-03   1.654283540550692E-03   1.670909366537816E-03
   1.687702284854022E-03   1.704663974805136E-03   1.721796132574291E-03
   1.739100471391537E-03   1.756578721705177E-03   1.774232631354808E-03
   1.792063965746108E-03   1.810074508027373E-03   1.828266059267841E-03
   1.846640438637796E-03   1.865199483590487E-03   1.883945050045876E-03
   1.902879012576228E-03   1.922003264593576E-03   1.941319718539057E-03
   1.960830306074166E-03   1.980536978273911E-03   2.000441705821937E-03
   2.020546479207585E-03   2.040853308924950E-03   2.061364225673923E-03
   2.082081280563272E-03   2.103006545315751E-03   2.124142112475275E-03
   2.145490095616169E-03   2.167052629554538E-03   2.188831870561747E-03
   2.210829996580046E-03   2.233049207440366E-03   2.255491725082310E-03
   2.278159793776345E-03   2.301055680348233E-03   2.324181674405706E-03
   2.347540088567445E-03   2.371133258694329E-03   2.394963544123037E-03
   2.419033327901964E-03   2.443345017029549E-03   2.467901042694965E-03
   2.492703860521242E-03   2.517755950810833E-03   2.543059818793640E-03
   2.568617994877549E-03   2.594433034901469E-03   2.620507520390915E-03
   2.646844058816163E-03   2.673445283853002E-03   2.700313855646105E-03
   2.727452461075044E-03   2.754863814022973E-03   2.782550655648032E-03
   2.810515754657455E-03   2.838761907584452E-03   2.867291939067847E-03
   2.896108702134566E-03   2.925215078484931E-03   2.954613978780834E-03
   2.984308342936799E-03   3.014301140413990E-03   3.044595370517148E-03
   3.075194062694533E-03   3.106100276840853E-03   3.137317103603284E-03
   3.168847664690514E-03   3.200695113184929E-03   3.232862633857921E-03
   3.265353443488355E-03   3.298170791184276E-03   3.331317958707800E-03
   3.364798260803306E-03   3.398615045528896E-03   3.432771694591228E-03
   3.467271623683672E-03   3.502118282827890E-03   3.537315156718829E-03
   3.572865765073213E-03   3.608773662981502E-03   3.645042441263414E-03
   3.681675726826994E-03   3.718677183031330E-03   3.756050510052878E-03
   3.793799445255486E-03   3.831927763564127E-03   3.870439277842408E-03
   3.909337839273851E-03   3.948627337747016E-03   3.988311702244486E-03
   4.028394901235785E-03   4.068880943074215E-03   4.109773876397696E-03
   4.151077790533646E-03   4.192796815907887E-03   4.234935124457728E-03
   4.277496930049140E-03   4.320486488898152E-03   4.363908099996468E-03
   4.407766105541386E-03   4.452064891370009E-03   4.496808887397839E-03
   4.542002568061758E-03   4.587650452767498E-03   4.633757106341570E-03
   4.680327139487757E-03   4.727365209248174E-03   4.774876019469000E-03
   4.822864321270851E-03   4.871334913523899E-03   4.920292643327754E-03
   4.969742406496199E-03   5.019689148046761E-03   5.070137862695219E-03
   5.121093595355072E-03   5.172561441642052E-03   5.224546548383679E-03
   5.277054114133948E-03   5.330089389693193E-03   5.383657678633161E-03
   5.437764337827387E-03   5.492414777986881E-03   5.547614464201207E-03
   5.603368916484975E-03   5.659683710329882E-03   5.716564477262240E-03
   5.774016905406150E-03   5.832046740052292E-03   5.890659784232494E-03
   5.949861899300017E-03   6.009659005515713E-03   6.070057082640019E-03
   6.131062170530987E-03   6.192680369748245E-03   6.254917842163066E-03
   6.317780811574548E-03   6.381275564332022E-03   6.445408449963676E-03
   6.510185881811524E-03   6.575614337672720E-03   6.641700360447381E-03
   6.708450558792854E-03   6.775871607784602E-03   6.843970249583713E-03
   6.912753294111102E-03   6.982227619728551E-03   7.052400173926514E-03
   7.123277974018897E-03   7.194868107844759E-03   7.267177734477149E-03
   7.340214084938988E-03   7.413984462926195E-03   7.488496245538027E-03
   7.563756884014848E-03   7.639773904483222E-03   7.716554908708551E-03
   7.794107574855227E-03   7.872439658254501E-03   7.951558992179987E-03
   8.031473488631022E-03   8.112191139123827E-03   8.193720015490728E-03
   8.276068270687300E-03   8.359244139607695E-03   8.443255939908101E-03
   8.528112072838571E-03   8.613821024083108E-03   8.700391364608262E-03
   8.787831751520233E-03   8.876150928930565E-03   8.965357728830611E-03
   9.055461071974693E-03   9.146469968772225E-03   9.238393520188709E-03
   9.331240918655899E-03   9.425021448991013E-03   9.519744489325249E-03
   9.615419512041553E-03   9.712056084721938E-03   9.809663871104204E-03
   9.908252632048333E-03   1.000783222651257E-02   1.010841261253934E-02
   1.021000384825107E-02   1.031261609285600E-02   1.041625960766407E-02
   1.052094475711317E-02   1.062668200980546E-02   1.073348193955433E-02
   1.084135522644175E-02   1.095031265788630E-02   1.106036512972194E-02
   1.117152364728755E-02   1.128379932652753E-02   1.139720339510335E-02
   1.151174719351639E-02   1.162744217624193E-02   1.174429991287467E-02
   1.186233208928564E-02   1.198155050879085E-02   1.210196709333159E-02
   1.222359388466668E-02   1.234644304557659E-02   1.247052686107980E-02
   1.259585773966126E-02   1.272244821451327E-02   1.285031094478880E-02
   1.297945871686744E-02   1.310990444563402E-02   1.324166117577013E-02
   1.337474208305856E-02   1.350916047570094E-02   1.364492979564857E-02
   1.378206361994660E-02   1.392057566209169E-02   1.406047977340351E-02
   1.420178994440978E-02   1.434452030624537E-02   1.448868513206537E-02
   1.463429883847252E-02   1.478137598695882E-02   1.492993128536166E-02
   1.507997958933470E-02   1.523153590383336E-02   1.538461538461539E-02
   1.553923333975643E-02   1.569540523118085E-02   1.585314667620794E-02
   1.601247344911368E-02   1.617340148270807E-02   1.633594686992862E-02
   1.650012586544949E-02   1.666595488730705E-02   1.683345051854170E-02
   1.700262950885611E-02   1.717350877629032E-02   1.734610540891349E-02
   1.752043666653266E-02   1.769651998241889E-02   1.787437296505051E-02
   1.805401339987401E-02   1.823545925108255E-02   1.841872866341246E-02
   1.860383996395771E-02   1.879081166400260E-02   1.897966246087299E-02
   1.917041123980587E-02   1.936307707583813E-02   1.955767923571392E-02
   1.975423717981141E-02   1.995277056408879E-02   2.015329924204995E-02
   2.035584326672979E-02   2.056042289269959E-02   2.076705857809237E-02
   2.097577098664890E-02   2.118658098978396E-02   2.139950966867354E-02
   2.161457831636298E-02   2.183180843989626E-02   2.205122176246676E-02
   2.227284022558963E-02   2.249668599129578E-02   2.272278144434836E-02
   2.295114919448109E-02   2.318181207865929E-02   2.341479316336359E-02
   2.365011574689663E-02   2.388780336171285E-02   2.412787977677181E-02
   2.437036899991513E-02   2.461529528026710E-02   2.486268311065991E-02
   2.511255723008276E-02   2.536494262615582E-02   2.561986453762901E-02
   2.587734845690593E-02   2.613742013259307E-02   2.640010557207477E-02
   2.666543104411379E-02   2.693342308147849E-02   2.720410848359594E-02
   2.747751431923190E-02   2.775366792919779E-02   2.803259692908475E-02
   2.831432921202517E-02   2.859889295148221E-02   2.888631660406684E-02
   2.917662891238388E-02   2.946985890790610E-02   2.976603591387741E-02
   3.006518954824522E-02   3.036734972662226E-02   3.067254666527817E-02
   3.098081088416121E-02   3.129217320995004E-02   3.160666477913675E-02
   3.192431704114036E-02   3.224516176145177E-02   3.256923102481038E-02
   3.289655723841258E-02   3.322717313515253E-02   3.356111177689538E-02
   3.389840655778367E-02   3.423909120757645E-02   3.458319979502265E-02
   3.493076673126779E-02   3.528182677329512E-02   3.563641502740141E-02
   3.599456695270754E-02   3.635631836470452E-02   3.672170543883507E-02
   3.709076471411095E-02   3.746353309676732E-02   3.784004786395309E-02
   3.822034666745872E-02   3.860446753748150E-02   3.899244888642853E-02
   3.938432951275801E-02   3.978014860485922E-02   4.017994574497108E-02
   4.058376091314084E-02   4.099163449122182E-02   4.140360726691174E-02
   4.181972043783146E-02   4.224001561564486E-02   4.266453483021995E-02
   4.309332053383196E-02   4.352641560540865E-02   4.396386335481793E-02
   4.440570752719938E-02   4.485199230733842E-02   4.530276232408498E-02
   4.575806265481638E-02   4.621793882994511E-02   4.668243683747191E-02
   4.715160312758469E-02   4.762548461730329E-02   4.810412869517165E-02
   4.858758322599645E-02   4.907589655563362E-02   4.956911751582307E-02
   5.006729542907185E-02   5.057048011358641E-02   5.107872188825464E-02
   5.159207157767733E-02   5.211058051725134E-02   5.263430055830270E-02
   5.316328407327194E-02   5.369758396095141E-02   5.423725365177510E-02
   5.478234711316184E-02   5.533291885491198E-02   5.588902393465865E-02
   5.645071796337302E-02   5.701805711092617E-02   5.759109811170560E-02
   5.816989827028894E-02   5.875451546717439E-02   5.934500816456881E-02
   5.994143541223403E-02   6.054385685339195E-02   6.115233273068848E-02
   6.176692389221852E-02   6.238769179761040E-02   6.301469852417195E-02
   6.364800677309834E-02   6.428767987574223E-02   6.493378179994692E-02
   6.558637715644342E-02   6.624553120531092E-02   6.691130986250375E-02
   6.758377970644244E-02   6.826300798467178E-02   6.894906262058560E-02
   6.964201222021925E-02   7.034192607911011E-02   7.104887418922735E-02
   7.176292724597123E-02   7.248415665524223E-02   7.321263454058241E-02
   7.394843375038739E-02   7.469162786519129E-02   7.544229120502494E-02
   7.620049883684789E-02   7.696632658205516E-02   7.773985102405957E-02
   7.852114951594968E-02   7.931030018822591E-02   8.010738195661309E-02
   8.091247452995230E-02   8.172565841817180E-02   8.254701494033806E-02
   8.337662623278774E-02   8.421457525734162E-02   8.506094580960014E-02
   8.591582252732397E-02   8.677929089889728E-02   8.765143727187681E-02
   8.853234886162663E-02   8.942211376003981E-02   9.032082094434768E-02
   9.122856028601757E-02   9.214542255974029E-02   9.307149945250692E-02
   9.400688357277866E-02   9.495166845974699E-02   9.590594859268796E-02
   9.686981940041009E-02   9.784337727079738E-02   9.882671956044815E-02
   9.981994460441104E-02   1.008231517260177E-01   1.018364412468166E-01
   1.028599144966042E-01   1.038936738235583E-01   1.049378226044731E-01
   1.059924652550968E-01   1.070577072405734E-01   1.081336550859892E-01
   1.092204163870252E-01   1.103180998207172E-01   1.114268151563233E-01
   1.125466732663010E-01   1.136777861373946E-01   1.148202668818337E-01
   1.159742297486449E-01   1.171397901350765E-01   1.183170645981385E-01
   1.195061708662581E-01   1.207072278510531E-01   1.219203556592229E-01
   1.231456756045593E-01   1.243833102200778E-01   1.256333832702715E-01
   1.268960197634870E-01   1.281713459644261E-01   1.294594894067713E-01
   1.307605789059404E-01   1.320747445719676E-01   1.334021178225147E-01
   1.347428313960128E-01   1.360970193649366E-01   1.374648171492114E-01
   1.388463615297559E-01   1.402417906621587E-01   1.416512440904963E-01
   1.430748627612860E-01   1.445127890375813E-01   1.459651667132081E-01
   1.474321410271442E-01   1.489138586780436E-01   1.504104678389061E-01
   1.519221181718953E-01   1.534489608433035E-01   1.549911485386706E-01
   1.565488354780513E-01   1.581221774314377E-01   1.597113317343360E-01
   1.613164573035011E-01   1.629377146528273E-01   1.645752659094010E-01
   1.662292748297118E-01   1.678999068160305E-01   1.695873289329478E-01
   1.712917099240816E-01   1.730132202289515E-01   1.747520320000224E-01
   1.765083191199204E-01   1.782822572188216E-01   1.800740236920133E-01
   1.818837977176364E-01   1.837117602746017E-01   1.855580941606880E-01
   1.874229840108227E-01   1.893066163155448E-01   1.912091794396544E-01
   1.931308636410496E-01   1.950718610897521E-01   1.970323658871237E-01
   1.990125740852782E-01   2.010126837066856E-01   2.030328947639747E-01
   2.050734092799349E-01   2.071344313077182E-01   2.092161669512449E-01
   2.113188243858144E-01   2.134426138789218E-01   2.155877478112865E-01
   2.177544406980894E-01   2.199429092104247E-01   2.221533721969674E-01
   2.243860507058582E-01   2.266411680068087E-01   2.289189496134285E-01
   2.312196233057756E-01   2.335434191531370E-01   2.358905695370339E-01
   2.382613091744606E-01   2.406558751413565E-01   2.430745068963138E-01
   2.455174463045234E-01   2.479849376619621E-01   2.504772277198222E-01
   2.529945657091855E-01   2.555372033659493E-01   2.581053949559982E-01
   2.606993973006311E-01   2.633194698022442E-01   2.659658744702713E-01
   2.686388759473843E-01   2.713387415359590E-01   2.740657412248033E-01
   2.768201477161589E-01   2.796022364529703E-01   2.824122856464296E-01