<UPF version="2.0.1">
  <PP_INFO>
    Generated using "atomic" code by A. Dal Corso  v.6.8
    Author: D.C.
    Generation date:  7Nov2024
    Pseudopotential type: USPP
    Element: Er
    Functional: PBE
    Suggested minimum cutoff for wavefunctions:  40. Ry
    Suggested minimum cutoff for charge density: 159. Ry
    The Pseudo was generated with a Scalar-Relativistic Calculation
    L component and cutoff radius for Local Potential:  2   2.1000
    Pseudopotential contains additional information for GIPAW reconstruction.
    Valence configuration: 
    nl pn  l   occ       Rcut    Rcut US       E pseu
    4F  4  3 12.00      1.300      2.000    -0.230000
    5F  5  3  0.00      1.300      2.000     0.000363
    5P  2  1  6.00      1.300      1.800    -1.938857
    6P  3  1  0.00      1.300      1.800    -0.083266
    5S  1  0  2.00      1.300      1.600    -3.811354
    6S  2  0  2.00      1.300      1.600    -0.281511
    5D  3  2  0.00      4.236      4.660    -0.067116
    Generation configuration:
    4F  4  3 12.00      1.300      2.000    -0.230420
    5F  5  3  0.00      1.300      2.000     1.500000
    5P  2  1  6.00      1.300      1.800    -1.939073
    6P  3  1  0.00      1.300      1.800     0.500000
    5S  1  0  2.00      1.300      1.600    -3.811622
    6S  2  0  2.00      1.300      1.600    -0.281558
    5D  3  2  0.00      2.100      2.100    -0.067175
    Pseudization used: troullier-martins
    <PP_INPUTFILE>
@input
title = 'Er'
prefix = 'er'
verbosity = 'high'
zed = 68
dft = 'pbe'
rel = 1
iswitch = 3
beta = 0.2
xmin = -8.0, dx = 0.01
nld = 4, rlderiv = 3.4, eminld  = -5.0, emaxld  = 5.0, deld = 0.002
/
16
1S  1  0   2.0
2S  2  0   2.0
2P  2  1   6.0
3S  3  0   2.0
3P  3  1   6.0
3D  3  2  10.0
4S  4  0   2.0
4P  4  1   6.0
4D  4  2  10.0
5S  5  0   2.0
5P  5  1   6.0
5D  5  2   0.0
4F  4  3  12.0
6S  6  0   2.0
6P  6  1   0.0
5F  5  3   0.0
@inputp
pseudotype = 3
lloc = 2
rcloc = 2.1
tm = .true.
nlcc = .true.
new_core_ps = .true.
rcore = 1.1
file_core = 'er.core'
file_pseudopw = 'Er.pbe-rrkjus-semi-gipaw-dc.UPF'
lgipaw_reconstruction = .true.
!upf_v1_format = .true.
author = 'D.C.'
/
7
4F  4  3 12.0  0.00  1.30  2.00
5F  5  3  0.0  1.50  1.30  2.00
5P  2  1  6.0  0.00  1.30  1.80
6P  3  1  0.0  0.50  1.30  1.80
5S  1  0  2.0  0.00  1.30  1.60
6S  2  0  2.0  0.00  1.30  1.60
5D  3  2  0.0  0.00  2.10  2.10
@test
ecutmin = 20
ecutmax = 60
decut   = 5
/
7
4F  4  3 12.0  0.00  1.30  2.00
5F  5  3  0.0  1.50  1.30  2.00
5P  2  1  6.0  0.00  1.30  1.80
6P  3  1  0.0  0.50  1.30  1.80
5S  1  0  2.0  0.00  1.30  1.60
6S  2  0  2.0  0.00  1.30  1.60
5D  3  2  0.0  0.00  2.10  2.10
    </PP_INPUTFILE>
  </PP_INFO>
    <!-- END OF HUMAN READABLE SECTION -->
  <PP_HEADER generated="Generated using 'atomic' code by A. Dal Corso  v.6.8" author="D.C." date=" 7Nov2024" comment="" element="Er" pseudo_type="USPP" relativistic="scalar" is_ultrasoft="true" is_paw="false" is_coulomb="false" has_so="false" has_wfc="false" has_gipaw="true" paw_as_gipaw="false" core_correction="true" functional="PBE" z_valence="22.0000000000000" total_psenergy="-397.703046352499" wfc_cutoff="39.7209922304766" rho_cutoff="158.883968921906" l_max="3" l_max_rho="6" l_local="2" mesh_size="1683" number_of_wfc="7" number_of_proj="6"/>
  <PP_MESH mesh="1683" dx="1.000000000000000E-002" xmin="-8.00000000000000" rmax="100.000000000000" zmesh="68.0000000000000">
    <PP_R>
   4.933273939742821E-06   4.982854167109208E-06   5.032932684044697E-06
   5.083514498442720E-06   5.134604668526859E-06   5.186208303356702E-06
   5.238330563338736E-06   5.290976660742398E-06   5.344151860221291E-06
   5.397861479339682E-06   5.452110889104238E-06   5.506905514501152E-06
   5.562250835038614E-06   5.618152385294805E-06   5.674615755471333E-06
   5.731646591952276E-06   5.789250597868798E-06   5.847433533669498E-06
   5.906201217696442E-06   5.965559526767012E-06   6.025514396761571E-06
   6.086071823217083E-06   6.147237861926661E-06   6.209018629545152E-06
   6.271420304200791E-06   6.334449126113052E-06   6.398111398216649E-06
   6.462413486791845E-06   6.527361822101088E-06   6.592962899032023E-06
   6.659223277747014E-06   6.726149584339151E-06   6.793748511494872E-06
   6.862026819163212E-06   6.930991335231844E-06   7.000648956209843E-06
   7.071006647917364E-06   7.142071446182195E-06   7.213850457543390E-06
   7.286350859961902E-06   7.359579903538395E-06   7.433544911238240E-06
   7.508253279623850E-06   7.583712479594321E-06   7.659930057132538E-06
   7.736913634059761E-06   7.814670908797837E-06   7.893209657139042E-06
   7.972537733023663E-06   8.052663069325383E-06   8.133593678644612E-06
   8.215337654109722E-06   8.297903170186379E-06   8.381298483495005E-06
   8.465531933636413E-06   8.550611944025817E-06   8.636547022735165E-06
   8.723345763343927E-06   8.811016845798501E-06   8.899569037280194E-06
   8.989011193081946E-06   9.079352257493883E-06   9.170601264697712E-06
   9.262767339670205E-06   9.355859699095664E-06   9.449887652287616E-06
   9.544860602119721E-06   9.640788045966115E-06   9.737679576651124E-06
   9.835544883408565E-06   9.934393752850653E-06   1.003423606994672E-05
   1.013508181901166E-05   1.023694108470445E-05   1.033982405303651E-05
   1.044374101239043E-05   1.054870235454873E-05   1.065471857573310E-05
   1.076180027765401E-05   1.086995816857088E-05   1.097920306436293E-05
   1.108954588961080E-05   1.120099767868893E-05   1.131356957686913E-05
   1.142727284143502E-05   1.154211884280782E-05   1.165811906568337E-05
   1.177528511018061E-05   1.189362869300164E-05   1.201316164860336E-05
   1.213389593038095E-05   1.225584361186318E-05   1.237901688791984E-05
   1.250342807598117E-05   1.262908961726967E-05   1.275601407804415E-05
   1.288421415085649E-05   1.301370265582080E-05   1.314449254189549E-05
   1.327659688817814E-05   1.341002890521347E-05   1.354480193631439E-05
   1.368092945889631E-05   1.381842508582494E-05   1.395730256677754E-05
   1.409757578961794E-05   1.423925878178533E-05   1.438236571169698E-05
   1.452691089016514E-05   1.467290877182812E-05   1.482037395659574E-05
   1.496932119110939E-05   1.511976537021662E-05   1.527172153846071E-05
   1.542520489158514E-05   1.558023077805309E-05   1.573681470058242E-05
   1.589497231769586E-05   1.605471944528692E-05   1.621607205820150E-05
   1.637904629183534E-05   1.654365844374761E-05   1.670992497529068E-05
   1.687786251325627E-05   1.704748785153811E-05   1.721881795281139E-05
   1.739186995022901E-05   1.756666114913493E-05   1.774320902879471E-05
   1.792153124414342E-05   1.810164562755119E-05   1.828357019060649E-05
   1.846732312591720E-05   1.865292280892998E-05   1.884038779976781E-05
   1.902973684508600E-05   1.922098887994688E-05   1.941416302971328E-05
   1.960927861196117E-05   1.980635513841139E-05   2.000541231688079E-05
   2.020647005325312E-05   2.040954845346954E-05   2.061466782553933E-05
   2.082184868157062E-05   2.103111173982168E-05   2.124247792677270E-05
   2.145596837921851E-05   2.167160444638230E-05   2.188940769205043E-05
   2.210939989672901E-05   2.233160305982182E-05   2.255603940183034E-05
   2.278273136657583E-05   2.301170162344363E-05   2.324297306965025E-05
   2.347656883253307E-05   2.371251227186299E-05   2.395082698218060E-05
   2.419153679515551E-05   2.443466578196962E-05   2.468023825572423E-05
   2.492827877387133E-05   2.517881214066945E-05   2.543186340966407E-05
   2.568745788619294E-05   2.594562112991670E-05   2.620637895737488E-05
   2.646975744456752E-05   2.673578292956281E-05   2.700448201513099E-05
   2.727588157140446E-05   2.755000873856505E-05   2.782689092955794E-05
   2.810655583283291E-05   2.838903141511337E-05   2.867434592419295E-05
   2.896252789176032E-05   2.925360613625241E-05   2.954760976573618E-05
   2.984456818081962E-05   3.014451107759172E-05   3.044746845059207E-05
   3.075347059581044E-05   3.106254811371638E-05   3.137473191231924E-05
   3.169005321025904E-05   3.200854353992832E-05   3.233023475062546E-05
   3.265515901173964E-05   3.298334881596769E-05   3.331483698256356E-05
   3.364965666062014E-05   3.398784133238425E-05   3.432942481660490E-05
   3.467444127191519E-05   3.502292520024810E-05   3.537491145028691E-05
   3.573043522094996E-05   3.608953206491054E-05   3.645223789215233E-05
   3.681858897356029E-05   3.718862194454788E-05   3.756237380872057E-05
   3.793988194157618E-05   3.832118409424263E-05   3.870631839725295E-05
   3.909532336435834E-05   3.948823789637971E-05   3.988510128509769E-05
   4.028595321718189E-05   4.069083377815954E-05   4.109978345642417E-05
   4.151284314728436E-05   4.193005415705345E-05   4.235145820718005E-05
   4.277709743842036E-05   4.320701441505221E-05   4.364125212913153E-05
   4.407985400479160E-05   4.452286390258552E-05   4.497032612387217E-05
   4.542228541524665E-05   4.587878697301463E-05   4.633987644771237E-05
   4.680559994867157E-05   4.727600404863044E-05   4.775113578839097E-05
   4.823104268152313E-05   4.871577271911607E-05   4.920537437457758E-05
   4.969989660848111E-05   5.019938887346221E-05   5.070390111916363E-05
   5.121348379723034E-05   5.172818786635483E-05   5.224806479737292E-05
   5.277316657841100E-05   5.330354572008464E-05   5.383925526075012E-05
   5.438034877180783E-05   5.492688036305981E-05   5.547890468812067E-05
   5.603647694988290E-05   5.659965290603735E-05   5.716848887464897E-05
   5.774304173978859E-05   5.832336895722159E-05   5.890952856015324E-05
   5.950157916503234E-05   6.009957997741274E-05   6.070359079787406E-05
   6.131367202800163E-05   6.192988467642699E-05   6.255229036492832E-05
   6.318095133459328E-05   6.381593045204263E-05   6.445729121571729E-05
   6.510509776222810E-05   6.575941487276958E-05   6.642030797959805E-05
   6.708784317257488E-05   6.776208720577577E-05   6.844310750416576E-05
   6.913097217034235E-05   6.982574999134526E-05   7.052751044553561E-05
   7.123632370954363E-05   7.195226066528641E-05   7.267539290705614E-05
   7.340579274867965E-05   7.414353323074969E-05   7.488868812792934E-05
   7.564133195632917E-05   7.640153998095928E-05   7.716938822325566E-05
   7.794495346868238E-05   7.872831327441034E-05   7.951954597707294E-05
   8.031873070059969E-05   8.112594736412907E-05   8.194127668999997E-05
   8.276480021182449E-05   8.359660028264110E-05   8.443676008315003E-05
   8.528536363003149E-05   8.614249578434731E-05   8.700824226002731E-05
   8.788268963244033E-05   8.876592534705250E-05   8.965803772817115E-05
   9.055911598777791E-05   9.146925023444960E-05   9.238853148236938E-05
   9.331705166042809E-05   9.425490362141739E-05   9.520218115131477E-05
   9.615897897866279E-05   9.712539278404134E-05   9.810151920963639E-05
   9.908745586890393E-05   1.000833013563315E-04   1.010891552572978E-04
   1.021051181580311E-04   1.031312916556680E-04   1.041677783684136E-04
   1.052146819458027E-04   1.062721070790656E-04   1.073401595115968E-04
   1.084189460495296E-04   1.095085745724167E-04   1.106091540440186E-04
   1.117207945231995E-04   1.128436071749337E-04   1.139777042814221E-04
   1.151231992533202E-04   1.162802066410800E-04   1.174488421464044E-04
   1.186292226338179E-04   1.198214661423527E-04   1.210256918973534E-04
   1.222420203223988E-04   1.234705730513453E-04   1.247114729404892E-04
   1.259648440808538E-04   1.272308118105976E-04   1.285095027275484E-04
   1.298010447018636E-04   1.311055668888170E-04   1.324231997417141E-04
   1.337540750249386E-04   1.350983258271275E-04   1.364560865744815E-04
   1.378274930442067E-04   1.392126823780930E-04   1.406117930962280E-04
   1.420249651108495E-04   1.434523397403368E-04   1.448940597233420E-04
   1.463502692330651E-04   1.478211138916704E-04   1.493067407848495E-04
   1.508072984765297E-04   1.523229370237308E-04   1.538538079915705E-04
   1.554000644684214E-04   1.569618610812195E-04   1.585393540109278E-04
   1.601327010081537E-04   1.617420614089247E-04   1.633675961506221E-04
   1.650094677880748E-04   1.666678405098145E-04   1.683428801544957E-04
   1.700347542274785E-04   1.717436319175802E-04   1.734696841139937E-04
   1.752130834233772E-04   1.769740041871143E-04   1.787526224987490E-04
   1.805491162215946E-04   1.823636650065205E-04   1.841964503099174E-04
   1.860476554118427E-04   1.879174654343496E-04   1.898060673599981E-04
   1.917136500505549E-04   1.936404042658787E-04   1.955865226829966E-04
   1.975521999153721E-04   1.995376325323667E-04   2.015430190788963E-04
   2.035685600952870E-04   2.056144581373281E-04   2.076809177965288E-04
   2.097681457205773E-04   2.118763506340052E-04   2.140057433590606E-04
   2.161565368367909E-04   2.183289461483358E-04   2.205231885364370E-04
   2.227394834271616E-04   2.249780524518458E-04   2.272391194692576E-04
   2.295229105879828E-04   2.318296541890366E-04   2.341595809487012E-04
   2.365129238615946E-04   2.388899182639687E-04   2.412908018572450E-04
   2.437158147317832E-04   2.461651993908917E-04   2.486392007750777E-04
   2.511380662865411E-04   2.536620458139156E-04   2.562113917572576E-04
   2.587863590532852E-04   2.613872052008744E-04   2.640141902868068E-04
   2.666675770117805E-04   2.693476307166791E-04   2.720546194091065E-04
   2.747888137901879E-04   2.775504872816396E-04   2.803399160531123E-04
   2.831573790498076E-04   2.860031580203735E-04   2.888775375450779E-04
   2.917808050642689E-04   2.947132509071178E-04   2.976751683206527E-04
   3.006668534990833E-04   3.036886056134201E-04   3.067407268413929E-04
   3.098235223976680E-04   3.129373005643702E-04   3.160823727219107E-04
   3.192590533801260E-04   3.224676602097296E-04   3.257085140740783E-04
   3.289819390612588E-04   3.322882625164980E-04   3.356278150748966E-04
   3.390009306944939E-04   3.424079466896619E-04   3.458492037648398E-04
   3.493250460486029E-04   3.528358211280763E-04   3.563818800836930E-04
   3.599635775243040E-04   3.635812716226380E-04   3.672353241511201E-04
   3.709261005180474E-04   3.746539698041326E-04   3.784193047994109E-04
   3.822224820405200E-04   3.860638818483525E-04   3.899438883660909E-04
   3.938628895976202E-04   3.978212774463294E-04   4.018194477543025E-04
   4.058578003419013E-04   4.099367390477502E-04   4.140566717691191E-04
   4.182180105027135E-04   4.224211713858740E-04   4.266665747381920E-04
   4.309546451035404E-04   4.352858112925296E-04   4.396605064253871E-04
   4.440791679752721E-04   4.485422378120218E-04   4.530501622463396E-04
   4.576033920744246E-04   4.622023826230545E-04   4.668475937951168E-04
   4.715394901155997E-04   4.762785407780449E-04   4.810652196914679E-04
   4.859000055277490E-04   4.907833817695015E-04   4.957158367584179E-04
   5.006978637441080E-04   5.057299609334221E-04   5.108126315402728E-04
   5.159463838359565E-04   5.211317311999800E-04   5.263691921714015E-04
   5.316592905006825E-04   5.370025552020650E-04   5.423995206064709E-04
   5.478507264149384E-04   5.533567177525912E-04   5.589180452231520E-04
   5.645352649640011E-04   5.702089387017942E-04   5.759396338086333E-04
   5.817279233588051E-04   5.875743861860870E-04   5.934796069416345E-04
   5.994441761524443E-04   6.054686902804081E-04   6.115537517819585E-04
   6.176999691683170E-04   6.239079570663439E-04   6.301783362800030E-04
   6.365117338524399E-04   6.429087831286903E-04   6.493701238190127E-04
   6.558964020628605E-04   6.624882704934974E-04   6.691463883032584E-04
   6.758714213094736E-04   6.826640420210478E-04   6.895249297057133E-04
   6.964547704579548E-04   7.034542572676231E-04   7.105240900892319E-04
   7.176649759119557E-04   7.248776288303260E-04   7.321627701156462E-04
   7.395211282881156E-04   7.469534391896841E-04   7.544604460576344E-04
   7.620428995989094E-04   7.697015580651821E-04   7.774371873286822E-04
   7.852505609587810E-04   7.931424602993533E-04   8.011136745469096E-04
   8.091650008295185E-04   8.172972442865160E-04   8.255112181490253E-04
   8.338077438212780E-04   8.421876509627548E-04   8.506517775711542E-04
   8.592009700661887E-04   8.678360833742329E-04   8.765579810138138E-04
   8.853675351819643E-04   8.942656268414407E-04   9.032531458088254E-04
   9.123309908435043E-04   9.215000697375468E-04   9.307612994064814E-04
   9.401156059809937E-04   9.495639248995364E-04   9.591072010018758E-04
   9.687463886235731E-04   9.784824516914244E-04   9.883163638198494E-04
   9.982491084082569E-04   1.008281678739382E-03   1.018415078078618E-03
   1.028650319774343E-03   1.038988427359259E-03   1.049430434652736E-03
   1.059977385864207E-03   1.070630335697582E-03   1.081390349456722E-03
   1.092258503151969E-03   1.103235883607750E-03   1.114323588571257E-03
   1.125522726822228E-03   1.136834418283820E-03   1.148259794134606E-03
   1.159799996921690E-03   1.171456180674971E-03   1.183229511022536E-03
   1.195121165307231E-03   1.207132332704394E-03   1.219264214340774E-03
   1.231518023414647E-03   1.243894985317128E-03   1.256396337754724E-03
   1.269023330873096E-03   1.281777227382078E-03   1.294659302681950E-03
   1.307670844990976E-03   1.320813155474230E-03   1.334087548373714E-03
   1.347495351139778E-03   1.361037904563872E-03   1.374716562912625E-03
   1.388532694063269E-03   1.402487679640436E-03   1.416582915154309E-03
   1.430819810140188E-03   1.445199788299434E-03   1.459724287641849E-03
   1.474394760629467E-03   1.489212674321815E-03   1.504179510522609E-03
   1.519296765927945E-03   1.534565952275956E-03   1.549988596498005E-03
   1.565566240871365E-03   1.581300443173456E-03   1.597192776837618E-03
   1.613244831110462E-03   1.629458211210792E-03   1.645834538490131E-03
   1.662375450594851E-03   1.679082601629948E-03   1.695957662324449E-03
   1.713002320198486E-03   1.730218279732048E-03   1.747607262535436E-03
   1.765171007521422E-03   1.782911271079142E-03   1.800829827249735E-03
   1.818928467903747E-03   1.837209002920330E-03   1.855673260368217E-03
   1.874323086688541E-03   1.893160346879474E-03   1.912186924682734E-03
   1.931404722771956E-03   1.950815662942967E-03   1.970421686305956E-03
   1.990224753479599E-03   2.010226844787115E-03   2.030429960454307E-03
   2.050836120809573E-03   2.071447366485956E-03   2.092265758625199E-03
   2.113293379083867E-03   2.134532330641526E-03   2.155984737211031E-03
   2.177652744050918E-03   2.199538517979928E-03   2.221644247593690E-03
   2.243972143483586E-03   2.266524438457815E-03   2.289303387764668E-03
   2.312311269318054E-03   2.335550383925304E-03   2.359023055517246E-03
   2.382731631380599E-03   2.406678482392708E-03   2.430866003258626E-03
   2.455296612750599E-03   2.479972753949933E-03   2.504896894491316E-03
   2.530071526809567E-03   2.555499168388899E-03   2.581182362014659E-03
   2.607123676027616E-03   2.633325704580784E-03   2.659791067898854E-03
   2.686522412540215E-03   2.713522411661608E-03   2.740793765285441E-03
   2.768339200569806E-03   2.796161472081184E-03   2.824263362069915E-03
   2.852647680748411E-03   2.881317266572197E-03   2.910274986523745E-03
   2.939523736399185E-03   2.969066441097875E-03   2.998906054914904E-03
   3.029045561836521E-03   3.059487975838535E-03   3.090236341187718E-03
   3.121293732746222E-03   3.152663256279087E-03   3.184348048764809E-03
   3.216351278709042E-03   3.248676146461445E-03   3.281325884535733E-03
   3.314303757932922E-03   3.347613064467836E-03   3.381257135098881E-03
   3.415239334261159E-03   3.449563060202906E-03   3.484231745325322E-03
   3.519248856525803E-03   3.554617895544654E-03   3.590342399315251E-03
   3.626425940317744E-03   3.662872126936298E-03   3.699684603819949E-03
   3.736867052247063E-03   3.774423190493471E-03   3.812356774204289E-03
   3.850671596769501E-03   3.889371489703294E-03   3.928460323027210E-03
   3.967942005657162E-03   4.007820485794304E-03   4.048099751319888E-03
   4.088783830194030E-03   4.129876790858528E-03   4.171382742643683E-03
   4.213305836179266E-03   4.255650263809567E-03   4.298420260012641E-03
   4.341620101823740E-03   4.385254109263050E-03   4.429326645767677E-03
   4.473842118628003E-03   4.518804979428402E-03   4.564219724492427E-03
   4.610090895332430E-03   4.656423079103726E-03   4.703220909063294E-03
   4.750489065033132E-03   4.798232273868227E-03   4.846455309929254E-03
   4.895162995559995E-03   4.944360201569609E-03   4.994051847719692E-03
   5.044242903216273E-03   5.094938387206729E-03   5.146143369281698E-03
   5.197862969982061E-03   5.250102361310989E-03   5.302866767251154E-03
   5.356161464287109E-03   5.409991781932975E-03   5.464363103265376E-03
   5.519280865461761E-03   5.574750560344102E-03   5.630777734928118E-03
   5.687367991977958E-03   5.744526990566490E-03   5.802260446641195E-03
   5.860574133595797E-03   5.919473882847587E-03   5.978965584420578E-03
   6.039055187534495E-03   6.099748701199727E-03   6.161052194818220E-03
   6.222971798790427E-03   6.285513705128335E-03   6.348684168074702E-03
   6.412489504728464E-03   6.476936095676458E-03   6.542030385631490E-03
   6.607778884076789E-03   6.674188165916997E-03   6.741264872135638E-03
   6.809015710459240E-03   6.877447456028078E-03   6.946566952073746E-03
   7.016381110603445E-03   7.086896913091216E-03   7.158121411176056E-03
   7.230061727367134E-03   7.302725055756021E-03   7.376118662736114E-03
   7.450249887729262E-03   7.525126143919743E-03   7.600754918995576E-03
   7.677143775897300E-03   7.754300353574247E-03   7.832232367748489E-03
   7.910947611686389E-03   7.990453956977943E-03   8.070759354323921E-03
   8.151871834330986E-03   8.233799508314736E-03   8.316550569110837E-03
   8.400133291894339E-03   8.484556035007158E-03   8.569827240793965E-03
   8.655955436446398E-03   8.742949234855803E-03   8.830817335474502E-03
   8.919568525185786E-03   9.009211679182587E-03   9.099755761855018E-03
   9.191209827686779E-03   9.283583022160676E-03   9.376884582673136E-03
   9.471123839457965E-03   9.566310216519365E-03   9.662453232574366E-03
   9.759562502004696E-03   9.857647735818230E-03   9.956718742620071E-03
   1.005678542959347E-02   1.015785780349051E-02   1.025994597163282E-02
   1.036306014292226E-02   1.046721062886191E-02   1.057240784458715E-02
   1.067866230990722E-02   1.078598465035720E-02   1.089438559826056E-02
   1.100387599380243E-02   1.111446678611361E-02   1.122616903436549E-02
   1.133899390887598E-02   1.145295269222654E-02   1.156805678039049E-02
   1.168431768387256E-02   1.180174702885998E-02   1.192035655838510E-02
   1.204015813349973E-02   1.216116373446122E-02   1.228338546193047E-02
   1.240683553818211E-02   1.253152630832664E-02   1.265747024154497E-02
   1.278467993233538E-02   1.291316810177296E-02   1.304294759878173E-02
   1.317403140141954E-02   1.330643261817588E-02   1.344016448928277E-02
   1.357524038803876E-02   1.371167382214631E-02   1.384947843506249E-02
   1.398866800736344E-02   1.412925645812240E-02   1.427125784630159E-02
   1.441468637215817E-02   1.455955637866424E-02   1.470588235294118E-02
   1.485367892770835E-02   1.500296088274640E-02   1.515374314637524E-02
   1.530604079694690E-02   1.545986906435331E-02   1.561524333154941E-02
   1.577217913609142E-02   1.593069217169057E-02   1.609079828978250E-02
   1.625251350111246E-02   1.641585397733633E-02   1.658083605263790E-02
   1.674747622536210E-02   1.691579115966512E-02   1.708579768718064E-02
   1.725751280870310E-02   1.743095369588773E-02   1.760613769296779E-02
   1.778308231848898E-02   1.796180526706131E-02   1.814232441112859E-02
   1.832465780275561E-02   1.850882367543350E-02   1.869484044590301E-02
   1.888272671599620E-02   1.907250127449664E-02   1.926418309901834E-02
   1.945779135790347E-02   1.965334541213931E-02   1.985086481729418E-02
   2.005036932547321E-02   2.025187888729349E-02   2.045541365387912E-02
   2.066099397887637E-02   2.086864042048907E-02   2.107837374353441E-02
   2.129021492151950E-02   2.150418513873861E-02   2.172030579239181E-02
   2.193859849472457E-02   2.215908507518902E-02   2.238178758262696E-02
   2.260672828747472E-02   2.283392968399022E-02   2.306341449250246E-02
   2.329520566168358E-02   2.352932637084355E-02   2.376580003224844E-02
   2.400465029346146E-02   2.424590103970777E-02   2.448957639626303E-02
   2.473570073086597E-02   2.498429865615514E-02   2.523539503213030E-02
   2.548901496863818E-02   2.574518382788385E-02   2.600392722696670E-02
   2.626527104044226E-02   2.652924140290966E-02   2.679586471162512E-02
   2.706516762914171E-02   2.733717708597564E-02   2.761192028329918E-02
   2.788942469566106E-02   2.816971807373378E-02   2.845282844708870E-02
   2.873878412699911E-02   2.902761370927128E-02   2.931934607710414E-02
   2.961401040397763E-02   2.991163615656989E-02   3.021225309770425E-02
   3.051589128932535E-02   3.082258109550537E-02   3.113235318548051E-02
   3.144523853671791E-02   3.176126843801345E-02   3.208047449262058E-02
   3.240288862141086E-02   3.272854306606572E-02   3.305747039230107E-02
   3.338970349312363E-02   3.372527559212034E-02   3.406422024678075E-02
   3.440657135185280E-02   3.475236314273226E-02   3.510163019888646E-02
   3.545440744731193E-02   3.581073016602759E-02   3.617063398760222E-02
   3.653415490271789E-02   3.690132926376908E-02   3.727219378849785E-02
   3.764678556366574E-02   3.802514204876248E-02   3.840730107975177E-02
   3.879330087285521E-02   3.918318002837379E-02   3.957697753454798E-02
   3.997473277145654E-02   4.037648551495465E-02   4.078227594065142E-02
   4.119214462792761E-02   4.160613256399356E-02   4.202428114798773E-02
   4.244663219511706E-02   4.287322794083820E-02   4.330411104508124E-02
   4.373932459651566E-02   4.417891211685929E-02   4.462291756523050E-02
   4.507138534254419E-02   4.552436029595168E-02   4.598188772332584E-02
   4.644401337779072E-02   4.691078347229684E-02   4.738224468424264E-02
   4.785844416014221E-02   4.833942952033995E-02   4.882524886377281E-02
   4.931595077277980E-02   4.981158431796084E-02   5.031219906308346E-02
   5.081784507003936E-02   5.132857290385061E-02   5.184443363772620E-02
   5.236547885816940E-02   5.289176067013646E-02   5.342333170224724E-02
   5.396024511204774E-02   5.450255459132648E-02   5.505031437148328E-02
   5.560357922895266E-02   5.616240449068140E-02   5.672684603966137E-02
   5.729696032051783E-02   5.787280434515407E-02   5.845443569845223E-02
   5.904191254403240E-02   5.963529363006877E-02   6.023463829516436E-02
   6.084000647428518E-02   6.145145870475360E-02   6.206905613230222E-02
   6.269286051718856E-02   6.332293424037073E-02   6.395934030974623E-02
   6.460214236645234E-02   6.525140469123036E-02   6.590719221085389E-02
   6.656957050462134E-02   6.723860581091408E-02   6.791436503382026E-02
   6.859691574982545E-02   6.928632621456977E-02   6.998266536967436E-02
   7.068600284963500E-02   7.139640898878580E-02   7.211395482833266E-02
   7.283871212345755E-02   7.357075335049390E-02   7.431015171417459E-02
   7.505698115495191E-02   7.581131635639241E-02   7.657323275264485E-02
   7.734280653598381E-02   7.812011466442892E-02   7.890523486944079E-02
   7.969824566369417E-02   8.049922634892949E-02   8.130825702388247E-02
   8.212541859229495E-02   8.295079277100476E-02   8.378446209811753E-02
   8.462650994126075E-02   8.547702050592040E-02   8.633607884386174E-02
   8.720377086163444E-02   8.808018332916351E-02   8.896540388842573E-02
   8.985952106221490E-02   9.076262426299345E-02   9.167480380183408E-02
   9.259615089745082E-02   9.352675768532102E-02   9.446671722689898E-02
   9.541612351892231E-02   9.637507150281108E-02   9.734365707416295E-02
   9.832197709234224E-02   9.931012939016599E-02   1.003082127836875E-01
   1.013163270820778E-01   1.023345730976069E-01   1.033630526557250E-01
   1.044018686052447E-01   1.054511248286267E-01   1.065109262523679E-01
   1.075813788574936E-01   1.086625896901566E-01   1.097546668723411E-01
   1.108577196126753E-01   1.119718582173525E-01   1.130971941011618E-01
   1.142338397986291E-01   1.153819089752714E-01   1.165415164389631E-01
   1.177127781514170E-01   1.188958112397803E-01   1.200907340083477E-01
   1.212976659503920E-01   1.225167277601132E-01   1.237480413447079E-01
   1.249917298365607E-01   1.262479176055573E-01   1.275167302715214E-01
   1.287982947167770E-01   1.300927390988365E-01   1.314001928632168E-01
   1.327207867563843E-01   1.340546528388281E-01   1.354019244982685E-01
   1.367627364629940E-01   1.381372248153351E-01   1.395255270052724E-01
   1.409277818641820E-01   1.423441296187182E-01   1.437747119048367E-01
   1.452196717819587E-01   1.466791537472754E-01   1.481533037501999E-01
   1.496422692069609E-01   1.511461990153448E-01   1.526652435695859E-01
   1.541995547754055E-01   1.557492860652026E-01   1.573145924133980E-01
   1.588956303519304E-01   1.604925579859115E-01   1.621055350094354E-01
   1.637347227215486E-01   1.653802840423801E-01   1.670423835294332E-01
   1.687211873940416E-01   1.704168635179912E-01   1.721295814703068E-01
   1.738595125242113E-01   1.756068296742516E-01   1.773717076535988E-01
   1.791543229515217E-01   1.809548538310354E-01   1.827734803467285E-01
   1.846103843627680E-01   1.864657495710866E-01   1.883397615097506E-01
   1.902326075815159E-01   1.921444770725671E-01   1.940755611714464E-01
   1.960260529881731E-01   1.979961475735542E-01   1.999860419386900E-01
   2.019959350746756E-01   2.040260279724988E-01   2.060765236431415E-01
   2.081476271378795E-01   2.102395455687883E-01   2.123524881294541E-01
   2.144866661158939E-01   2.166422929476848E-01   2.188195841893066E-01
   2.210187575716973E-01   2.232400330140280E-01   2.254836326456942E-01
   2.277497808285285E-01   2.300387041792378E-01   2.323506315920646E-01
   2.346857942616768E-01   2.370444257062873E-01   2.394267617910065E-01
   2.418330407514274E-01   2.442635032174516E-01   2.467183922373512E-01
   2.491979533020738E-01   2.517024343697923E-01   2.542320858907005E-01
   2.567871608320585E-01   2.593679147034903E-01   2.619746055825325E-01
   2.646074941404460E-01   2.672668436682804E-01   2.699529201032048E-01