<UPF version="2.0.1">
  <PP_INFO>
    Generated using "atomic" code by A. Dal Corso  v.6.8
    Author: D.C.
    Generation date:  7Nov2024
    Pseudopotential type: USPP
    Element: Lu
    Functional: PBE
    Suggested minimum cutoff for wavefunctions:  43. Ry
    Suggested minimum cutoff for charge density: 170. Ry
    The Pseudo was generated with a Scalar-Relativistic Calculation
    L component and cutoff radius for Local Potential:  2   2.1000
    Pseudopotential contains additional information for GIPAW reconstruction.
    Valence configuration: 
    nl pn  l   occ       Rcut    Rcut US       E pseu
    4F  4  3 14.00      1.100      2.000    -0.707334
    5F  5  3  0.00      1.100      2.000     0.000366
    5P  2  1  6.00      1.100      1.800    -2.327059
    6P  3  1  0.00      1.100      1.800    -0.098917
    5S  1  0  2.00      1.100      1.600    -4.487734
    6S  2  0  2.00      1.100      1.600    -0.342442
    5D  3  2  1.00      3.671      4.038    -0.128574
    Generation configuration:
    4F  4  3 14.00      1.100      2.000    -0.707333
    5F  5  3  0.00      1.100      2.000     0.500000
    5P  2  1  6.00      1.100      1.800    -2.327058
    6P  3  1  0.00      1.100      1.800     0.500000
    5S  1  0  2.00      1.100      1.600    -4.487734
    6S  2  0  2.00      1.100      1.600    -0.342443
    5D  3  2  1.00      2.100      2.100    -0.128576
    Pseudization used: troullier-martins
    <PP_INPUTFILE>
@input
title = 'Lu'
prefix = 'lu'
verbosity = 'high'
zed = 71
dft = 'pbe'
rel = 1
iswitch = 3
beta = 0.2
xmin = -8.0, dx = 0.01
nld = 4, rlderiv = 3.4, eminld  = -5.0, emaxld  = 5.0, deld = 0.002
/
16
1S  1  0   2.0
2S  2  0   2.0
2P  2  1   6.0
3S  3  0   2.0
3P  3  1   6.0
3D  3  2  10.0
4S  4  0   2.0
4P  4  1   6.0
4D  4  2  10.0
5S  5  0   2.0
5P  5  1   6.0
5D  5  2   1.0
4F  4  3  14.0
6S  6  0   2.0
6P  6  1   0.0
5F  5  3   0.0
@inputp
pseudotype = 3
lloc = 2
rcloc = 2.1
tm = .true.
nlcc = .true.
new_core_ps = .true.
rcore = 1.1
file_core = 'lu.core'
file_pseudopw = 'Lu.pbe-rrkjus-semi-gipaw-dc.UPF'
lgipaw_reconstruction = .true.
!upf_v1_format = .true.
author = 'D.C.'
/
7
4F  4  3 14.0  0.00  1.10  2.00
5F  5  3  0.0  0.50  1.10  2.00
5P  2  1  6.0  0.00  1.10  1.80
6P  3  1  0.0  0.50  1.10  1.80
5S  1  0  2.0  0.00  1.10  1.60
6S  2  0  2.0  0.00  1.10  1.60
5D  3  2  1.0  0.00  2.10  2.10
@test
ecutmin = 20
ecutmax = 60
decut   = 5
/
7
4F  4  3 14.0  0.00  1.10  2.00
5F  5  3  0.0  0.50  1.10  2.00
5P  2  1  6.0  0.00  1.10  1.80
6P  3  1  0.0  0.50  1.10  1.80
5S  1  0  2.0  0.00  1.10  1.60
6S  2  0  2.0  0.00  1.10  1.60
5D  3  2  1.0  0.00  2.10  2.10
    </PP_INPUTFILE>
  </PP_INFO>
    <!-- END OF HUMAN READABLE SECTION -->
  <PP_HEADER generated="Generated using 'atomic' code by A. Dal Corso  v.6.8" author="D.C." date=" 7Nov2024" comment="" element="Lu" pseudo_type="USPP" relativistic="scalar" is_ultrasoft="true" is_paw="false" is_coulomb="false" has_so="false" has_wfc="false" has_gipaw="true" paw_as_gipaw="false" core_correction="true" functional="PBE" z_valence="25.0000000000000" total_psenergy="-551.293324762078" wfc_cutoff="42.5895971603929" rho_cutoff="170.358388641572" l_max="3" l_max_rho="6" l_local="2" mesh_size="1687" number_of_wfc="7" number_of_proj="6"/>
  <PP_MESH mesh="1687" dx="1.000000000000000E-002" xmin="-8.00000000000000" rmax="100.000000000000" zmesh="71.0000000000000">
    <PP_R>
   4.724825745105801E-06   4.772311033287692E-06   4.820273556549850E-06
   4.868718111184577E-06   4.917649541687696E-06   4.967072741243039E-06
   5.016992652211747E-06   5.067414266626522E-06   5.118342626690815E-06
   5.169782825283076E-06   5.221740006466032E-06   5.274219366001103E-06
   5.327226151867968E-06   5.380765664789390E-06   5.434843258761277E-06
   5.489464341588096E-06   5.544634375423638E-06   5.600358877317265E-06
   5.656643419765607E-06   5.713493631269815E-06   5.770915196898406E-06
   5.828913858855797E-06   5.887495417056520E-06   5.946665729705216E-06
   6.006430713882448E-06   6.066796346136444E-06   6.127768663080734E-06
   6.189353761997823E-06   6.251557801448930E-06   6.314387001889825E-06
   6.377847646292915E-06   6.441946080775525E-06   6.506688715234525E-06
   6.572082023987301E-06   6.638132546419231E-06   6.704846887637597E-06
   6.772231719132123E-06   6.840293779442102E-06   6.909039874830289E-06
   6.978476879963512E-06   7.048611738600152E-06   7.119451464284511E-06
   7.191003141048194E-06   7.263273924118504E-06   7.336271040633981E-06
   7.410001790367095E-06   7.484473546454267E-06   7.559693756133167E-06
   7.635669941487452E-06   7.712409700198960E-06   7.789920706307516E-06
   7.868210710978325E-06   7.947287543277095E-06   8.027159110952964E-06
   8.107833401229240E-06   8.189318481602191E-06   8.271622500647764E-06
   8.354753688836437E-06   8.438720359356310E-06   8.523530908944411E-06
   8.609193818726370E-06   8.695717655064563E-06   8.783111070414710E-06
   8.871382804191183E-06   8.960541683640917E-06   9.050596624726167E-06
   9.141556633016072E-06   9.233430804587265E-06   9.326228326933471E-06
   9.419958479884259E-06   9.514630636533019E-06   9.610254264174319E-06
   9.706838925250608E-06   9.804394278308488E-06   9.902930078964547E-06
   1.000245618088097E-05   1.010298253675089E-05   1.020451919929367E-05
   1.030707632226018E-05   1.041066416144816E-05   1.051529307572788E-05
   1.062097352807794E-05   1.072771608663165E-05   1.083553142573381E-05
   1.094443032700819E-05   1.105442368043566E-05   1.116552248544323E-05
   1.127773785200396E-05   1.139108100174805E-05   1.150556326908491E-05
   1.162119610233668E-05   1.173799106488305E-05   1.185595983631759E-05
   1.197511421361577E-05   1.209546611231461E-05   1.221702756770426E-05
   1.233981073603157E-05   1.246382789571570E-05   1.258909144857597E-05
   1.271561392107202E-05   1.284340796555657E-05   1.297248636154054E-05
   1.310286201697111E-05   1.323454796952248E-05   1.336755738789962E-05
   1.350190357315521E-05   1.363759996001975E-05   1.377466011824499E-05
   1.391309775396098E-05   1.405292671104665E-05   1.419416097251423E-05
   1.433681466190759E-05   1.448090204471450E-05   1.462643752979335E-05
   1.477343567081393E-05   1.492191116771282E-05   1.507187886816344E-05
   1.522335376906082E-05   1.537635101802128E-05   1.553088591489721E-05
   1.568697391330709E-05   1.584463062218081E-05   1.600387180732065E-05
   1.616471339297784E-05   1.632717146344495E-05   1.649126226466443E-05
   1.665700220585314E-05   1.682440786114331E-05   1.699349597124000E-05
   1.716428344509510E-05   1.733678736159833E-05   1.751102497128509E-05
   1.768701369806154E-05   1.786477114094703E-05   1.804431507583396E-05
   1.822566345726546E-05   1.840883442023081E-05   1.859384628197891E-05
   1.878071754385013E-05   1.896946689312640E-05   1.916011320489991E-05
   1.935267554396073E-05   1.954717316670322E-05   1.974362552305175E-05
   1.994205225840566E-05   2.014247321560387E-05   2.034490843690906E-05
   2.054937816601209E-05   2.075590285005628E-05   2.096450314168210E-05
   2.117519990109257E-05   2.138801419813920E-05   2.160296731442906E-05
   2.182008074545290E-05   2.203937620273474E-05   2.226087561600306E-05
   2.248460113538378E-05   2.271057513361526E-05   2.293882020828564E-05
   2.316935918409260E-05   2.340221511512583E-05   2.363741128717250E-05
   2.387497122004578E-05   2.411491866993694E-05   2.435727763179095E-05
   2.460207234170591E-05   2.484932727935684E-05   2.509906717044355E-05
   2.535131698916326E-05   2.560610196070805E-05   2.586344756378743E-05
   2.612337953317610E-05   2.638592386228765E-05   2.665110680577380E-05
   2.691895488214983E-05   2.718949487644661E-05   2.746275384288902E-05
   2.773875910760143E-05   2.801753827134033E-05   2.829911921225437E-05
   2.858353008867231E-05   2.887079934191883E-05   2.916095569915860E-05
   2.945402817626916E-05   2.975004608074245E-05   3.004903901461561E-05
   3.035103687743120E-05   3.065606986922712E-05   3.096416849355678E-05
   3.127536356053937E-05   3.158968618994089E-05   3.190716781428623E-05
   3.222784018200238E-05   3.255173536059337E-05   3.287888573984695E-05
   3.320932403507370E-05   3.354308329037846E-05   3.388019688196492E-05
   3.422069852147320E-05   3.456462225935094E-05   3.491200248825857E-05
   3.526287394650845E-05   3.561727172153881E-05   3.597523125342251E-05
   3.633678833841098E-05   3.670197913251406E-05   3.707084015511550E-05
   3.744340829262489E-05   3.781972080216649E-05   3.819981531530484E-05
   3.858372984180801E-05   3.897150277344857E-05   3.936317288784287E-05
   3.975877935232868E-05   4.015836172788218E-05   4.056195997307385E-05
   4.096961444806457E-05   4.138136591864155E-05   4.179725556029499E-05
   4.221732496233562E-05   4.264161613205374E-05   4.307017149891982E-05
   4.350303391882777E-05   4.394024667838021E-05   4.438185349921748E-05
   4.482789854238967E-05   4.527842641277282E-05   4.573348216352938E-05
   4.619311130061371E-05   4.665735978732243E-05   4.712627404889120E-05
   4.759990097713684E-05   4.807828793514691E-05   4.856148276201587E-05
   4.904953377762906E-05   4.954248978749477E-05   5.004040008762477E-05
   5.054331446946405E-05   5.105128322486980E-05   5.156435715114096E-05
   5.208258755609763E-05   5.260602626321222E-05   5.313472561679162E-05
   5.366873848721179E-05   5.420811827620478E-05   5.475291892219901E-05
   5.530319490571302E-05   5.585900125480378E-05   5.642039355056930E-05
   5.698742793270703E-05   5.756016110512770E-05   5.813865034162586E-05
   5.872295349160721E-05   5.931312898587374E-05   5.990923584246655E-05
   6.051133367256822E-05   6.111948268646337E-05   6.173374369956023E-05
   6.235417813847200E-05   6.298084804715961E-05   6.361381609313615E-05
   6.425314557373369E-05   6.489890042243312E-05   6.555114521525735E-05
   6.620994517722931E-05   6.687536618889405E-05   6.754747479290734E-05
   6.822633820068968E-05   6.891202429914754E-05   6.960460165746222E-05
   7.030413953394672E-05   7.101070788297153E-05   7.172437736196051E-05
   7.244521933845610E-05   7.317330589725678E-05   7.390870984762514E-05
   7.465150473056904E-05   7.540176482619582E-05   7.615956516114029E-05
   7.692498151606731E-05   7.769809043325038E-05   7.847896922422532E-05
   7.926769597752205E-05   8.006434956647316E-05   8.086900965710144E-05
   8.168175671608650E-05   8.250267201881151E-05   8.333183765749094E-05
   8.416933654937947E-05   8.501525244506436E-05   8.586966993683997E-05
   8.673267446716756E-05   8.760435233721933E-05   8.848479071550870E-05
   8.937407764660718E-05   9.027230205994905E-05   9.117955377872401E-05
   9.209592352886013E-05   9.302150294809593E-05   9.395638459514471E-05
   9.490066195895024E-05   9.585442946803582E-05   9.681778249994715E-05
   9.779081739079034E-05   9.877363144486513E-05   9.976632294439613E-05
   1.007689911593604E-04   1.017817363574150E-04   1.028046598139237E-04
   1.038378638220847E-04   1.048814517031597E-04   1.059355278168065E-04
   1.070001975715150E-04   1.080755674351477E-04   1.091617449455873E-04
   1.102588387214898E-04   1.113669584731471E-04   1.124862150134578E-04
   1.136167202690087E-04   1.147585872912673E-04   1.159119302678878E-04
   1.170768645341284E-04   1.182535065843870E-04   1.194419740838489E-04
   1.206423858802544E-04   1.218548620157836E-04   1.230795237390604E-04
   1.243164935172778E-04   1.255658950484444E-04   1.268278532737543E-04
   1.281024943900820E-04   1.293899458626010E-04   1.306903364375316E-04
   1.320037961550149E-04   1.333304563621172E-04   1.346704497259649E-04
   1.360239102470108E-04   1.373909732724353E-04   1.387717755096797E-04
   1.401664550401187E-04   1.415751513328674E-04   1.429980052587291E-04
   1.444351591042820E-04   1.458867565861084E-04   1.473529428651661E-04
   1.488338645613050E-04   1.503296697679285E-04   1.518405080668041E-04
   1.533665305430204E-04   1.549078898000969E-04   1.564647399752437E-04
   1.580372367547758E-04   1.596255373896815E-04   1.612298007113480E-04
   1.628501871474442E-04   1.644868587379641E-04   1.661399791514306E-04
   1.678097137012626E-04   1.694962293623067E-04   1.711996947875343E-04
   1.729202803249075E-04   1.746581580344140E-04   1.764135017052730E-04
   1.781864868733142E-04   1.799772908385320E-04   1.817860926828151E-04
   1.836130732878554E-04   1.854584153532359E-04   1.873223034147009E-04
   1.892049238626099E-04   1.911064649605765E-04   1.930271168642950E-04
   1.949670716405565E-04   1.969265232864550E-04   1.989056677487882E-04
   2.009047029436515E-04   2.029238287762303E-04   2.049632471607905E-04
   2.070231620408702E-04   2.091037794096737E-04   2.112053073306721E-04
   2.133279559584083E-04   2.154719375595143E-04   2.176374665339368E-04
   2.198247594363779E-04   2.220340349979505E-04   2.242655141480519E-04
   2.265194200364568E-04   2.287959780556320E-04   2.310954158632769E-04
   2.334179634050881E-04   2.357638529377554E-04   2.381333190521870E-04
   2.405265986969689E-04   2.429439312020601E-04   2.453855583027255E-04
   2.478517241637097E-04   2.503426754036544E-04   2.528586611197587E-04
   2.553999329126912E-04   2.579667449117490E-04   2.605593538002710E-04
   2.631780188413067E-04   2.658230019035421E-04   2.684945674874879E-04
   2.711929827519285E-04   2.739185175406395E-04   2.766714444093704E-04
   2.794520386531027E-04   2.822605783335776E-04   2.850973443071039E-04
   2.879626202526431E-04   2.908566927001770E-04   2.937798510593622E-04
   2.967323876484707E-04   2.997145977236222E-04   3.027267795083088E-04
   3.057692342232193E-04   3.088422661163607E-04   3.119461824934834E-04
   3.150812937488113E-04   3.182479133960826E-04   3.214463580999010E-04
   3.246769477074026E-04   3.279400052802396E-04   3.312358571268888E-04
   3.345648328352816E-04   3.379272653057632E-04   3.413234907843820E-04
   3.447538488965165E-04   3.482186826808365E-04   3.517183386236079E-04
   3.552531666933412E-04   3.588235203757890E-04   3.624297567092949E-04
   3.660722363204980E-04   3.697513234603940E-04   3.734673860407631E-04
   3.772207956709602E-04   3.810119276950761E-04   3.848411612294728E-04
   3.887088792006942E-04   3.926154683837608E-04   3.965613194408464E-04
   4.005468269603453E-04   4.045723894963301E-04   4.086384096084092E-04
   4.127452939019823E-04   4.168934530689016E-04   4.210833019285397E-04
   4.253152594692747E-04   4.295897488903871E-04   4.339071976443815E-04
   4.382680374797306E-04   4.426727044840523E-04   4.471216391277175E-04
   4.516152863078983E-04   4.561540953930571E-04   4.607385202678848E-04
   4.653690193786892E-04   4.700460557792409E-04   4.747700971770763E-04
   4.795416159802725E-04   4.843610893446860E-04   4.892289992216697E-04
   4.941458324062681E-04   4.991120805858964E-04   5.041282403895112E-04
   5.091948134372734E-04   5.143123063907101E-04   5.194812310033805E-04
   5.247021041720536E-04   5.299754479883972E-04   5.353017897911878E-04
   5.406816622190433E-04   5.461156032636903E-04   5.516041563237615E-04
   5.571478702591372E-04   5.627472994458298E-04   5.684030038314246E-04
   5.741155489910733E-04   5.798855061840528E-04   5.857134524108899E-04
   5.915999704710641E-04   5.975456490212871E-04   6.035510826343690E-04
   6.096168718586749E-04   6.157436232781823E-04   6.219319495731389E-04
   6.281824695813312E-04   6.344958083599694E-04   6.408725972481911E-04
   6.473134739302000E-04   6.538190824990317E-04   6.603900735209649E-04
   6.670271041005765E-04   6.737308379464559E-04   6.805019454375742E-04
   6.873411036903237E-04   6.942489966262278E-04   7.012263150403372E-04
   7.082737566703079E-04   7.153920262661764E-04   7.225818356608329E-04
   7.298439038412089E-04   7.371789570201744E-04   7.445877287091604E-04
   7.520709597915085E-04   7.596293985965637E-04   7.672638009745051E-04
   7.749749303719332E-04   7.827635579082125E-04   7.906304624525877E-04
   7.985764307020690E-04   8.066022572601032E-04   8.147087447160350E-04
   8.228967037253637E-04   8.311669530908146E-04   8.395203198442161E-04
   8.479576393292052E-04   8.564797552847601E-04   8.650875199295793E-04
   8.737817940472998E-04   8.825634470725800E-04   8.914333571780385E-04
   9.003924113620785E-04   9.094415055375841E-04   9.185815446215148E-04
   9.278134426253940E-04   9.371381227467162E-04   9.465565174612641E-04
   9.560695686163587E-04   9.656782275250414E-04   9.753834550612112E-04
   9.851862217557092E-04   9.950875078933749E-04   1.005088303611072E-03
   1.015189608996706E-03   1.025392434189234E-03   1.035697799479677E-03
   1.046106735413154E-03   1.056620282891929E-03   1.067239493279514E-03
   1.077965428505795E-03   1.088799161173236E-03   1.099741774664129E-03
   1.110794363248943E-03   1.121958032195747E-03   1.133233897880739E-03
   1.144623087899883E-03   1.156126741181673E-03   1.167746008101023E-03
   1.179482050594310E-03   1.191336042275560E-03   1.203309168553820E-03
   1.215402626751697E-03   1.227617626225089E-03   1.239955388484121E-03
   1.252417147315301E-03   1.265004148904896E-03   1.277717651963557E-03
   1.290558927852181E-03   1.303529260709060E-03   1.316629947578288E-03
   1.329862298539469E-03   1.343227636838728E-03   1.356727299021029E-03
   1.370362635063842E-03   1.384135008512134E-03   1.398045796614728E-03
   1.412096390462025E-03   1.426288195125118E-03   1.440622629796302E-03
   1.455101127930989E-03   1.469725137391057E-03   1.484496120589638E-03
   1.499415554637363E-03   1.514484931490070E-03   1.529705758098000E-03
   1.545079556556499E-03   1.560607864258223E-03   1.576292234046886E-03
   1.592134234372534E-03   1.608135449448401E-03   1.624297479409331E-03
   1.640621940471789E-03   1.657110465095482E-03   1.673764702146615E-03
   1.690586317062771E-03   1.707576992019460E-03   1.724738426098337E-03
   1.742072335457110E-03   1.759580453501161E-03   1.777264531056883E-03
   1.795126336546772E-03   1.813167656166257E-03   1.831390294062337E-03
   1.849796072513986E-03   1.868386832114391E-03   1.887164431955000E-03
   1.906130749811446E-03   1.925287682331321E-03   1.944637145223843E-03
   1.964181073451422E-03   1.983921421423169E-03   2.003860163190332E-03
   2.023999292643704E-03   2.044340823713011E-03   2.064886790568312E-03
   2.085639247823415E-03   2.106600270741340E-03   2.127771955441843E-03
   2.149156419111041E-03   2.170755800213118E-03   2.192572258704189E-03
   2.214607976248277E-03   2.236865156435503E-03   2.259346025002433E-03
   2.282052830054658E-03   2.304987842291608E-03   2.328153355233614E-03
   2.351551685451277E-03   2.375185172797119E-03   2.399056180639571E-03
   2.423167096099304E-03   2.447520330287960E-03   2.472118318549251E-03
   2.496963520702505E-03   2.522058421288638E-03   2.547405529818621E-03
   2.573007381024431E-03   2.598866535112526E-03   2.624985578019860E-03
   2.651367121672490E-03   2.678013804246768E-03   2.704928290433158E-03
   2.732113271702704E-03   2.759571466576188E-03   2.787305620895981E-03
   2.815318508100628E-03   2.843612929502190E-03   2.872191714566387E-03
   2.901057721195542E-03   2.930213836014372E-03   2.959662974658659E-03
   2.989408082066804E-03   3.019452132774337E-03   3.049798131211366E-03
   3.080449112003026E-03   3.111408140272933E-03   3.142678311949716E-03
   3.174262754076601E-03   3.206164625124124E-03   3.238387115305971E-03
   3.270933446898012E-03   3.303806874560530E-03   3.337010685663688E-03
   3.370548200616262E-03   3.404422773197697E-03   3.438637790893480E-03
   3.473196675233896E-03   3.508102882136173E-03   3.543359902250092E-03
   3.578971261307046E-03   3.614940520472620E-03   3.651271276702699E-03
   3.687967163103184E-03   3.725031849293295E-03   3.762469041772539E-03
   3.800282484291366E-03   3.838475958225530E-03   3.877053282954258E-03
   3.916018316242170E-03   3.955374954625069E-03   3.995127133799584E-03
   4.035278829016762E-03   4.075834055479586E-03   4.116796868744501E-03
   4.158171365126961E-03   4.199961682111090E-03   4.242171998763409E-03
   4.284806536150763E-03   4.327869557762412E-03   4.371365369936409E-03
   4.415298322290215E-03   4.459672808155682E-03   4.504493265018367E-03
   4.549764174961309E-03   4.595490065113232E-03   4.641675508101257E-03
   4.688325122508164E-03   4.735443573334273E-03   4.783035572463931E-03
   4.831105879136713E-03   4.879659300423346E-03   4.928700691706415E-03
   4.978234957165917E-03   5.028267050269680E-03   5.078801974268711E-03
   5.129844782697512E-03   5.181400579879469E-03   5.233474521437262E-03
   5.286071814808447E-03   5.339197719766182E-03   5.392857548945240E-03
   5.447056668373256E-03   5.501800498007342E-03   5.557094512276074E-03
   5.612944240626960E-03   5.669355268079379E-03   5.726333235783089E-03
   5.783883841582333E-03   5.842012840585654E-03   5.900726045741394E-03
   5.960029328419001E-03   6.019928618996152E-03   6.080429907451827E-03
   6.141539243965289E-03   6.203262739521115E-03   6.265606566520300E-03
   6.328576959397488E-03   6.392180215244448E-03   6.456422694439766E-03
   6.521310821284905E-03   6.586851084646610E-03   6.653050038605841E-03
   6.719914303113159E-03   6.787450564650742E-03   6.855665576901011E-03
   6.924566161422043E-03   6.994159208329710E-03   7.064451676986701E-03
   7.135450596698447E-03   7.207163067416093E-03   7.279596260446468E-03
   7.352757419169245E-03   7.426653859761250E-03   7.501292971928131E-03
   7.576682219643302E-03   7.652829141894369E-03   7.729741353436994E-03
   7.807426545556438E-03   7.885892486836648E-03   7.965147023937141E-03
   8.045198082377678E-03   8.126053667330799E-03   8.207721864422389E-03
   8.290210840540213E-03   8.373528844650629E-03   8.457684208623466E-03
   8.542685348065260E-03   8.628540763160787E-03   8.715259039523115E-03
   8.802848849052127E-03   8.891318950801775E-03   8.980678191855961E-03
   9.070935508213262E-03   9.162099925680518E-03   9.254180560775449E-03
   9.347186621638300E-03   9.441127408952671E-03   9.536012316875562E-03
   9.631850833976845E-03   9.728652544188093E-03   9.826427127761007E-03
   9.925184362235403E-03   1.002493412341704E-02   1.012568638636516E-02
   1.022745122639001E-02   1.033023882006042E-02   1.043405944622138E-02
   1.053892348702204E-02   1.064484142895388E-02   1.075182386389935E-02
   1.085988149019108E-02   1.096902511368176E-02   1.107926564882469E-02
   1.119061411976527E-02   1.130308166144336E-02   1.141667952070686E-02
   1.153141905743636E-02   1.164731174568116E-02   1.176436917480665E-02
   1.188260305065329E-02   1.200202519670720E-02   1.212264755528251E-02
   1.224448218871558E-02   1.236754128057129E-02   1.249183713686137E-02
   1.261738218727505E-02   1.274418898642197E-02   1.287227021508772E-02
   1.300163868150191E-02   1.313230732261900E-02   1.326428920541196E-02
   1.339759752817907E-02   1.353224562186371E-02   1.366824695138744E-02
   1.380561511699656E-02   1.394436385562209E-02   1.408450704225352E-02
   1.422605869132631E-02   1.436903295812332E-02   1.451344414019037E-02
   1.465930667876604E-02   1.480663516022570E-02   1.495544431754028E-02
   1.510574903174953E-02   1.525756433345012E-02   1.541090540429874E-02
   1.556578757853024E-02   1.572222634449114E-02   1.588023734618841E-02
   1.603983638485384E-02   1.620103942052434E-02   1.636386257363780E-02
   1.652832212664522E-02   1.669443452563895E-02   1.686221638199732E-02
   1.703168447404579E-02   1.720285574873478E-02   1.737574732333443E-02
   1.755037648714622E-02   1.772676070323209E-02   1.790491761016063E-02
   1.808486502377100E-02   1.826662093895453E-02   1.845020353145418E-02
   1.863563115968220E-02   1.882292236655597E-02   1.901209588135217E-02
   1.920317062157998E-02   1.939616569487264E-02   1.959110040089831E-02
   1.978799423329005E-02   1.998686688159516E-02   2.018773823324422E-02
   2.039062837553980E-02   2.059555759766515E-02   2.080254639271329E-02
   2.101161545973621E-02   2.122278570581484E-02   2.143607824814977E-02
   2.165151441617297E-02   2.186911575368078E-02   2.208890402098828E-02
   2.231090119710540E-02   2.253512948193467E-02   2.276161129849147E-02
   2.299036929514619E-02   2.322142634788913E-02   2.345480556261811E-02
   2.369053027744910E-02   2.392862406504999E-02   2.416911073499803E-02
   2.441201433616051E-02   2.465735915910003E-02   2.490516973850332E-02
   2.515547085563484E-02   2.540828754081488E-02   2.566364507592265E-02
   2.592156899692446E-02   2.618208509642738E-02   2.644521942625837E-02
   2.671099830006975E-02   2.697944829597038E-02   2.725059625918354E-02
   2.752446930473154E-02   2.780109482014714E-02   2.808050046821241E-02
   2.836271418972506E-02   2.864776420629229E-02   2.893567902315337E-02
   2.922648743202991E-02   2.952021851400514E-02   2.981690164243204E-02
   3.011656648587067E-02   3.041924301105513E-02   3.072496148589014E-02
   3.103375248247801E-02   3.134564688017562E-02   3.166067586868272E-02
   3.197887095116066E-02   3.230026394738286E-02   3.262488699691678E-02
   3.295277256233789E-02   3.328395343247596E-02   3.361846272569407E-02
   3.395633389320016E-02   3.429760072239262E-02   3.464229734023874E-02
   3.499045821668756E-02   3.534211816811687E-02   3.569731236081485E-02
   3.605607631449677E-02   3.641844590585703E-02   3.678445737215662E-02
   3.715414731484724E-02   3.752755270323124E-02   3.790471087815863E-02
   3.828565955576120E-02   3.867043683122417E-02   3.905908118259573E-02
   3.945163147463489E-02   3.984812696269806E-02   4.024860729666430E-02
   4.065311252490084E-02   4.106168309826757E-02   4.147435987416231E-02
   4.189118412060654E-02   4.231219752037228E-02   4.273744217515034E-02
   4.316696060976064E-02   4.360079577640442E-02   4.403899105895997E-02
   4.448159027732069E-02   4.492863769177725E-02   4.538017800744366E-02
   4.583625637872774E-02   4.629691841384671E-02   4.676221017938804E-02
   4.723217820491587E-02   4.770686948762447E-02   4.818633149703768E-02
   4.867061217975600E-02   4.915975996425129E-02   4.965382376570960E-02
   5.015285299092281E-02   5.065689754322928E-02   5.116600782750440E-02
   5.168023475520066E-02   5.219962974943945E-02   5.272424475015301E-02
   5.325413221927860E-02   5.378934514600472E-02   5.432993705207004E-02
   5.487596199711566E-02   5.542747458409122E-02   5.598452996471481E-02
   5.654718384498879E-02   5.711549249077009E-02   5.768951273339686E-02
   5.826930197537172E-02   5.885491819610204E-02   5.944641995769789E-02
   6.004386641082848E-02   6.064731730063676E-02   6.125683297271470E-02
   6.187247437913745E-02   6.249430308455867E-02   6.312238127236711E-02
   6.375677175090495E-02   6.439753795974869E-02   6.504474397605321E-02
   6.569845452095958E-02   6.635873496606683E-02   6.702565133996982E-02
   6.769927033486169E-02   6.837965931320329E-02   6.906688631445945E-02
   6.976102006190300E-02   7.046212996948711E-02   7.117028614878693E-02
   7.188555941601028E-02   7.260802129908006E-02   7.333774404478663E-02
   7.407480062601267E-02   7.481926474903051E-02   7.557121086087287E-02
   7.633071415677752E-02   7.709785058770711E-02   7.787269686794378E-02
   7.865533048276137E-02   7.944582969617356E-02   8.024427355876046E-02
   8.105074191557367E-02   8.186531541412094E-02   8.268807551243097E-02
   8.351910448719918E-02   8.435848544201575E-02   8.520630231567536E-02
   8.606263989057202E-02   8.692758380117682E-02   8.780122054260166E-02
   8.868363747924868E-02   8.957492285354689E-02   9.047516579477648E-02
   9.138445632798194E-02   9.230288538297399E-02   9.323054480342367E-02
   9.416752735604608E-02   9.511392673987729E-02   9.606983759564436E-02
   9.703535551522946E-02   9.801057705122913E-02   9.899559972660987E-02
   9.999052204445970E-02   1.009954434978397E-01   1.020104645797326E-01
   1.030356867930925E-01   1.040712126609951E-01   1.051171457368900E-01
   1.061735906149566E-01   1.072406529405630E-01   1.083184394208311E-01
   1.094070578353067E-01   1.105066170467388E-01   1.116172270119647E-01
   1.127389987929064E-01   1.138720445676769E-01   1.150164776417978E-01
   1.161724124595304E-01   1.173399646153197E-01   1.185192508653540E-01
   1.197103891392412E-01   1.209134985518014E-01   1.221286994149783E-01
   1.233561132498709E-01   1.245958627988856E-01   1.258480720380105E-01
   1.271128661892131E-01   1.283903717329622E-01   1.296807164208769E-01
   1.309840292885013E-01   1.323004406682082E-01   1.336300822022328E-01
   1.349730868558363E-01   1.363295889306033E-01   1.376997240778718E-01
   1.390836293122985E-01   1.404814430255595E-01   1.418933050001914E-01
   1.433193564235681E-01   1.447597399020204E-01   1.462145994750964E-01
   1.476840806299658E-01   1.491683303159687E-01   1.506674969593107E-01
   1.521817304779051E-01   1.537111822963659E-01   1.552560053611494E-01
   1.568163541558494E-01   1.583923847166457E-01   1.599842546479078E-01
   1.615921231379553E-01   1.632161509749775E-01   1.648565005631108E-01
   1.665133359386813E-01   1.681868227866072E-01   1.698771284569679E-01
   1.715844219817391E-01   1.733088740916959E-01   1.750506572334865E-01
   1.768099455868764E-01   1.785869150821674E-01   1.803817434177893E-01
   1.821946100780716E-01   1.840256963511910E-01   1.858751853473008E-01
   1.877432620168419E-01   1.896301131690378E-01   1.915359274905763E-01
   1.934608955644780E-01   1.954052098891537E-01   1.973690648976566E-01
   1.993526569771241E-01   2.013561844884169E-01   2.033798477859561E-01
   2.054238492377575E-01   2.074883932456699E-01   2.095736862658148E-01
   2.116799368292312E-01   2.138073555627311E-01   2.159561552099606E-01
   2.181265506526752E-01   2.203187589322278E-01   2.225329992712732E-01
   2.247694930956904E-01   2.270284640567259E-01   2.293101380533583E-01
   2.316147432548882E-01   2.339425101237564E-01   2.362936714385898E-01
   2.386684623174792E-01   2.410671202414912E-01   2.434898850784173E-01
   2.459369991067603E-01   2.484087070399625E-01   2.509052560508762E-01
   2.534268957964835E-01   2.559738784428601E-01   2.585464586903933E-01