<UPF version="2.0.1">
  <PP_INFO>
    Generated using "atomic" code by A. Dal Corso  v.6.8
    Author: D.C.
    Generation date: 25Oct2024
    Pseudopotential type: USPP
    Element: Eu
    Functional: PBE
    Suggested minimum cutoff for wavefunctions:  67. Ry
    Suggested minimum cutoff for charge density: 269. Ry
    The Pseudo was generated with a Scalar-Relativistic Calculation
    L component and cutoff radius for Local Potential:  2   2.1000
    Pseudopotential contains additional information for GIPAW reconstruction.
    Valence configuration: 
    nl pn  l   occ       Rcut    Rcut US       E pseu
    4F  4  3  7.00      1.300      2.000    -0.199681
    5F  5  3  0.00      1.300      2.000     0.000366
    5P  2  1  6.00      1.300      1.800    -1.747326
    6P  3  1  0.00      1.300      1.800    -0.087923
    5S  1  0  2.00      1.300      1.600    -3.282799
    6S  2  0  2.00      1.300      1.600    -0.266269
    5D  3  2  0.00      4.306      4.737    -0.114435
    Generation configuration:
    4F  4  3  7.00      1.300      2.000    -0.199656
    5F  5  3  0.00      1.300      2.000     0.500000
    5P  2  1  6.00      1.300      1.800    -1.747309
    6P  3  1  0.00      1.300      1.800     0.500000
    5S  1  0  2.00      1.300      1.600    -3.282784
    6S  2  0  2.00      1.300      1.600    -0.266267
    5D  3  2  0.00      2.100      2.100    -0.114432
    Pseudization used: troullier-martins
    <PP_INPUTFILE>
@input
title = 'Eu'
prefix = 'eu'
verbosity = 'high'
zed = 63
dft = 'pbe'
rel = 1
iswitch = 3
beta = 0.2
xmin = -8.0, dx = 0.01
nld = 4, rlderiv = 3.4, eminld  = -5.0, emaxld  = 5.0, deld = 0.002
/
16
1S  1  0   2.0
2S  2  0   2.0
2P  2  1   6.0
3S  3  0   2.0
3P  3  1   6.0
3D  3  2  10.0
4S  4  0   2.0
4P  4  1   6.0
4D  4  2  10.0
5S  5  0   2.0
5P  5  1   6.0
5D  5  2   0.0
4F  4  3   7.0
6S  6  0   2.0
6P  6  1   0.0
5F  5  3   0.0
@inputp
pseudotype = 3
lloc = 2
rcloc = 2.1
tm = .true.
nlcc = .true.
new_core_ps = .true.
rcore = 1.3
file_core = 'eu.core'
file_pseudopw = 'Eu.pbe-rrkjus-semi-gipaw-dc.UPF'
lgipaw_reconstruction = .true.
!upf_v1_format = .true.
author = 'D.C.'
/
7
4F  4  3  7.0  0.00  1.30  2.00
5F  5  3  0.0  0.50  1.30  2.00
5P  2  1  6.0  0.00  1.30  1.80
6P  3  1  0.0  0.50  1.30  1.80
5S  1  0  2.0  0.00  1.30  1.60
6S  2  0  2.0  0.00  1.30  1.60
5D  3  2  0.0  0.00  2.10  2.10
@test
ecutmin = 20
ecutmax = 60
decut   = 5
/
7
4F  4  3  7.0  0.00  1.30  2.00
5F  5  3  0.0  0.50  1.30  2.00
5P  2  1  6.0  0.00  1.30  1.80
6P  3  1  0.0  0.50  1.30  1.80
5S  1  0  2.0  0.00  1.30  1.60
6S  2  0  2.0  0.00  1.30  1.60
5D  3  2  0.0  0.00  2.10  2.10
    </PP_INPUTFILE>
  </PP_INFO>
    <!-- END OF HUMAN READABLE SECTION -->
  <PP_HEADER generated="Generated using 'atomic' code by A. Dal Corso  v.6.8" author="D.C." date="25Oct2024" comment="" element="Eu" pseudo_type="USPP" relativistic="scalar" is_ultrasoft="true" is_paw="false" is_coulomb="false" has_so="false" has_wfc="false" has_gipaw="true" paw_as_gipaw="false" core_correction="true" functional="PBE" z_valence="17.0000000000000" total_psenergy="-203.322807017695" wfc_cutoff="67.1334802721891" rho_cutoff="268.533921088756" l_max="3" l_max_rho="6" l_local="2" mesh_size="1675" number_of_wfc="7" number_of_proj="6"/>
  <PP_MESH mesh="1675" dx="1.000000000000000E-002" xmin="-8.00000000000000" rmax="100.000000000000" zmesh="63.0000000000000">
    <PP_R>
   5.324803617500188E-06   5.378318783546446E-06   5.432371785953006E-06
   5.486968030065158E-06   5.542112975552800E-06   5.597812136956441E-06
   5.654071084238636E-06   5.710895443341001E-06   5.768290896746791E-06
   5.826263184049180E-06   5.884818102525210E-06   5.943961507715529E-06
   6.003699314009933E-06   6.064037495238837E-06   6.124982085270645E-06
   6.186539178615156E-06   6.248714931032989E-06   6.311515560151204E-06
   6.374947346085049E-06   6.439016632065981E-06   6.503729825075981E-06
   6.569093396488280E-06   6.635113882714491E-06   6.701797885858259E-06
   6.769152074375457E-06   6.837183183741072E-06   6.905898017122732E-06
   6.975303446061039E-06   7.045406411156731E-06   7.116213922764723E-06
   7.187733061695190E-06   7.259970979921624E-06   7.332934901296052E-06
   7.406632122271404E-06   7.481070012631197E-06   7.556256016226497E-06
   7.632197651720329E-06   7.708902513339512E-06   7.786378271634136E-06
   7.864632674244592E-06   7.943673546676363E-06   8.023508793082545E-06
   8.104146397054314E-06   8.185594422419266E-06   8.267861014047819E-06
   8.350954398667679E-06   8.434882885686554E-06   8.519654868023093E-06
   8.605278822946175E-06   8.691763312922637E-06   8.779116986473550E-06
   8.867348579039065E-06   8.956466913851965E-06   9.046480902820007E-06
   9.137399547417081E-06   9.229231939583422E-06   9.321987262634782E-06
   9.415674792180746E-06   9.510303897052351E-06   9.605884040238939E-06
   9.702424779834481E-06   9.799935769993396E-06   9.898426761895944E-06
   9.997907604723396E-06   1.009838824664294E-05   1.019987873580251E-05
   1.030238922133557E-05   1.040592995437612E-05   1.051051128908375E-05
   1.061614368367909E-05   1.072283770148959E-05   1.083060401200598E-05
   1.093945339194910E-05   1.104939672634766E-05   1.116044500962671E-05
   1.127260934670713E-05   1.138590095411609E-05   1.150033116110874E-05
   1.161591141080116E-05   1.173265326131460E-05   1.185056838693142E-05
   1.196966857926245E-05   1.208996574842615E-05   1.221147192423970E-05
   1.233419925742193E-05   1.245816002080844E-05   1.258336661057887E-05
   1.270983154749653E-05   1.283756747816050E-05   1.296658717627029E-05
   1.309690354390325E-05   1.322852961280470E-05   1.336147854569125E-05
   1.349576363756698E-05   1.363139831705297E-05   1.376839614773020E-05
   1.390677082949590E-05   1.404653619993357E-05   1.418770623569672E-05
   1.433029505390656E-05   1.447431691356375E-05   1.461978621697426E-05
   1.476671751118967E-05   1.491512548946184E-05   1.506502499271227E-05
   1.521643101101619E-05   1.536935868510163E-05   1.552382330786341E-05
   1.567984032589253E-05   1.583742534102082E-05   1.599659411188112E-05
   1.615736255548315E-05   1.631974674880523E-05   1.648376293040204E-05
   1.664942750202840E-05   1.681675703027953E-05   1.698576824824769E-05
   1.715647805719553E-05   1.732890352824620E-05   1.750306190409050E-05
   1.767897060071116E-05   1.785664720912440E-05   1.803610949713914E-05
   1.821737541113375E-05   1.840046307785066E-05   1.858539080620912E-05
   1.877217708913608E-05   1.896084060541548E-05   1.915140022155620E-05
   1.934387499367861E-05   1.953828416942033E-05   1.973464718986098E-05
   1.993298369146618E-05   2.013331350805141E-05   2.033565667276526E-05
   2.054003342009282E-05   2.074646418787917E-05   2.095496961937306E-05
   2.116557056529142E-05   2.137828808590436E-05   2.159314345314117E-05
   2.181015815271765E-05   2.202935388628459E-05   2.225075257359801E-05
   2.247437635471114E-05   2.270024759218848E-05   2.292838887334196E-05
   2.315882301248982E-05   2.339157305323803E-05   2.362666227078459E-05
   2.386411417424718E-05   2.410395250901402E-05   2.434620125911846E-05
   2.459088464963740E-05   2.483802714911376E-05   2.508765347200345E-05
   2.533978858114681E-05   2.559445769026482E-05   2.585168626648064E-05
   2.611150003286627E-05   2.637392497101482E-05   2.663898732363885E-05
   2.690671359719445E-05   2.717713056453211E-05   2.745026526757392E-05
   2.772614502001777E-05   2.800479741006882E-05   2.828625030319828E-05
   2.857053184493002E-05   2.885767046365510E-05   2.914769487347472E-05
   2.944063407707148E-05   2.973651736860989E-05   3.003537433666571E-05
   3.033723486718473E-05   3.064212914647158E-05   3.095008766420826E-05
   3.126114121650320E-05   3.157532090897085E-05   3.189265815984222E-05
   3.221318470310689E-05   3.253693259168630E-05   3.286393420063905E-05
   3.319422223039857E-05   3.352782971004308E-05   3.386479000059854E-05
   3.420513679837484E-05   3.454890413833533E-05   3.489612639750050E-05
   3.524683829838564E-05   3.560107491247307E-05   3.595887166371940E-05
   3.632026433209792E-05   3.668528905717665E-05   3.705398234173227E-05
   3.742638105540052E-05   3.780252243836303E-05   3.818244410507158E-05
   3.856618404800948E-05   3.895378064149074E-05   3.934527264549776E-05
   3.974069920955714E-05   4.014009987665485E-05   4.054351458719045E-05
   4.095098368297111E-05   4.136254791124600E-05   4.177824842878096E-05
   4.219812680597408E-05   4.262222503101302E-05   4.305058551407370E-05
   4.348325109156141E-05   4.392026503039442E-05   4.436167103233085E-05
   4.480751323833867E-05   4.525783623301007E-05   4.571268504901973E-05
   4.617210517162832E-05   4.663614254323095E-05   4.710484356795150E-05
   4.757825511628300E-05   4.805642452977485E-05   4.853939962576678E-05
   4.902722870217098E-05   4.951996054230151E-05   5.001764441975304E-05
   5.052033010332805E-05   5.102806786201381E-05   5.154090847000931E-05
   5.205890321180275E-05   5.258210388729988E-05   5.311056281700436E-05
   5.364433284724945E-05   5.418346735548302E-05   5.472802025560519E-05
   5.527804600335973E-05   5.583359960177981E-05   5.639473660668823E-05
   5.696151313225314E-05   5.753398585659930E-05   5.811221202747632E-05
   5.869624946798305E-05   5.928615658235028E-05   5.988199236178104E-05
   6.048381639034980E-05   6.109168885096095E-05   6.170567053136714E-05
   6.232582283024800E-05   6.295220776335030E-05   6.358488796968921E-05
   6.422392671781268E-05   6.486938791212804E-05   6.552133609929263E-05
   6.617983647466844E-05   6.684495488884182E-05   6.751675785420834E-05
   6.819531255162449E-05   6.888068683712539E-05   6.957294924871073E-05
   7.027216901319860E-05   7.097841605314812E-05   7.169176099385185E-05
   7.241227517039829E-05   7.314003063480559E-05   7.387510016322654E-05
   7.461755726322667E-05   7.536747618113456E-05   7.612493190946700E-05
   7.689000019442806E-05   7.766275754348374E-05   7.844328123301297E-05
   7.923164931603519E-05   8.002794063001554E-05   8.083223480474913E-05
   8.164461227032355E-05   8.246515426516240E-05   8.329394284414896E-05
   8.413106088683178E-05   8.497659210571275E-05   8.583062105461841E-05
   8.669323313715522E-05   8.756451461525043E-05   8.844455261777775E-05
   8.933343514927088E-05   9.023125109872373E-05   9.113809024847939E-05
   9.205404328320860E-05   9.297920179897805E-05   9.391365831241044E-05
   9.485750626993560E-05   9.581084005713603E-05   9.677375500818473E-05
   9.774634741537932E-05   9.872871453877100E-05   9.972095461589076E-05
   1.007231668715732E-04   1.017354515278791E-04   1.027579098141175E-04
   1.037906439769694E-04   1.048337572907113E-04   1.058873540675440E-04
   1.069515396680233E-04   1.080264205115959E-04   1.091121040872420E-04
   1.102086989642240E-04   1.113163148029433E-04   1.124350623659068E-04
   1.135650535288029E-04   1.147064012916899E-04   1.158592197902950E-04
   1.170236243074288E-04   1.181997312845133E-04   1.193876583332264E-04
   1.205875242472630E-04   1.217994490142141E-04   1.230235538275666E-04
   1.242599610988218E-04   1.255087944697372E-04   1.267701788246905E-04
   1.280442403031685E-04   1.293311063123807E-04   1.306309055400005E-04
   1.319437679670336E-04   1.332698248808171E-04   1.346092088881471E-04
   1.359620539285406E-04   1.373284952876291E-04   1.387086696106872E-04
   1.401027149162972E-04   1.415107706101516E-04   1.429329774989930E-04
   1.443694778046956E-04   1.458204151784869E-04   1.472859347153134E-04
   1.487661829683501E-04   1.502613079636559E-04   1.517714592149763E-04
   1.532967877386947E-04   1.548374460689350E-04   1.563935882728136E-04
   1.579653699658481E-04   1.595529483275172E-04   1.611564821169804E-04
   1.627761316889527E-04   1.644120590097412E-04   1.660644276734412E-04
   1.677334029182961E-04   1.694191516432210E-04   1.711218424244935E-04
   1.728416455326103E-04   1.745787329493156E-04   1.763332783847985E-04
   1.781054572950648E-04   1.798954468994823E-04   1.817034261985033E-04
   1.835295759915641E-04   1.853740788951659E-04   1.872371193611361E-04
   1.891188836950738E-04   1.910195600749805E-04   1.929393385700783E-04
   1.948784111598165E-04   1.968369717530698E-04   1.988152162075299E-04
   2.008133423492906E-04   2.028315499926313E-04   2.048700409599980E-04
   2.069290191021863E-04   2.090086903187262E-04   2.111092625784725E-04
   2.132309459404016E-04   2.153739525746180E-04   2.175384967835706E-04
   2.197247950234843E-04   2.219330659260049E-04   2.241635303200629E-04
   2.264164112539564E-04   2.286919340176563E-04   2.309903261653353E-04
   2.333118175381236E-04   2.356566402870926E-04   2.380250288964717E-04
   2.404172202070951E-04   2.428334534400876E-04   2.452739702207859E-04
   2.477390146029021E-04   2.502288330929284E-04   2.527436746747886E-04
   2.552837908347370E-04   2.578494355865059E-04   2.604408654967089E-04
   2.630583397104961E-04   2.657021199774704E-04   2.683724706778616E-04
   2.710696588489649E-04   2.737939542118455E-04   2.765456291983098E-04
   2.793249589781491E-04   2.821322214866581E-04   2.849676974524264E-04
   2.878316704254139E-04   2.907244268053044E-04   2.936462558701467E-04
   2.965974498052822E-04   2.995783037325633E-04   3.025891157398673E-04
   3.056301869109035E-04   3.087018213553239E-04   3.118043262391317E-04
   3.149380118154014E-04   3.181031914553018E-04   3.213001816794346E-04
   3.245293021894867E-04   3.277908759001995E-04   3.310852289716622E-04
   3.344126908419274E-04   3.377735942599552E-04   3.411682753188877E-04
   3.445970734896599E-04   3.480603316549462E-04   3.515583961434496E-04
   3.550916167645334E-04   3.586603468432042E-04   3.622649432554440E-04
   3.659057664638981E-04   3.695831805539208E-04   3.732975532699858E-04
   3.770492560524603E-04   3.808386640747490E-04   3.846661562808115E-04
   3.885321154230582E-04   3.924369281006252E-04   3.963809847980343E-04
   4.003646799242416E-04   4.043884118520796E-04   4.084525829580943E-04
   4.125575996627834E-04   4.167038724712377E-04   4.208918160141933E-04
   4.251218490894948E-04   4.293943947039746E-04   4.337098801157551E-04
   4.380687368769728E-04   4.424714008769367E-04   4.469183123857158E-04
   4.514099160981669E-04   4.559466611784037E-04   4.605290013047151E-04
   4.651573947149325E-04   4.698323042522542E-04   4.745541974115289E-04
   4.793235463860080E-04   4.841408281145632E-04   4.890065243293824E-04
   4.939211216041408E-04   4.988851114026621E-04   5.038989901280626E-04
   5.089632591723934E-04   5.140784249667786E-04   5.192449990320606E-04
   5.244634980299513E-04   5.297344438147000E-04   5.350583634852764E-04
   5.404357894380848E-04   5.458672594202017E-04   5.513533165831516E-04
   5.568945095372228E-04   5.624913924063276E-04   5.681445248834174E-04
   5.738544722864510E-04   5.796218056149272E-04   5.854471016069843E-04
   5.913309427970763E-04   5.972739175742254E-04   6.032766202408625E-04
   6.093396510722551E-04   6.154636163765398E-04   6.216491285553502E-04
   6.278968061650595E-04   6.342072739786336E-04   6.405811630481134E-04
   6.470191107677177E-04   6.535217609375833E-04   6.600897638281458E-04
   6.667237762451675E-04   6.734244615954188E-04   6.801924899530191E-04
   6.870285381264432E-04   6.939332897262054E-04   7.009074352332200E-04
   7.079516720678495E-04   7.150667046596480E-04   7.222532445178027E-04
   7.295120103022889E-04   7.368437278957341E-04   7.442491304760080E-04
   7.517289585895386E-04   7.592839602253709E-04   7.669148908899646E-04
   7.746225136827457E-04   7.824075993724155E-04   7.902709264740309E-04
   7.982132813268550E-04   8.062354581729925E-04   8.143382592368117E-04
   8.225224948051720E-04   8.307889833084505E-04   8.391385514023871E-04
   8.475720340507477E-04   8.560902746088257E-04   8.646941249077756E-04
   8.733844453397978E-04   8.821621049441760E-04   8.910279814941861E-04
   8.999829615848715E-04   9.090279407217036E-04   9.181638234101346E-04
   9.273915232460449E-04   9.367119630071086E-04   9.461260747450689E-04
   9.556347998789455E-04   9.652390892891742E-04   9.749399034127004E-04
   9.847382123390205E-04   9.946349959071934E-04   1.004631243803821E-03
   1.014727955662025E-03   1.024926141161404E-03   1.035226820129009E-03
   1.045631022641317E-03   1.056139789127252E-03   1.066754170472218E-03
   1.077475228123198E-03   1.088304034194888E-03   1.099241671576921E-03
   1.110289234042148E-03   1.121447826356026E-03   1.132718564387081E-03
   1.144102575218509E-03   1.155600997260882E-03   1.167214980365985E-03
   1.178945685941808E-03   1.190794287068682E-03   1.202761968616595E-03
   1.214849927363674E-03   1.227059372115870E-03   1.239391523827828E-03
   1.251847615724999E-03   1.264428893426953E-03   1.277136615071944E-03
   1.289972051442725E-03   1.302936486093632E-03   1.316031215478931E-03
   1.329257549082476E-03   1.342616809548646E-03   1.356110332814623E-03
   1.369739468243976E-03   1.383505578761609E-03   1.397410040990041E-03
   1.411454245387085E-03   1.425639596384883E-03   1.439967512530358E-03
   1.454439426627061E-03   1.469056785878465E-03   1.483821052032674E-03
   1.498733701528608E-03   1.513796225643645E-03   1.529010130642747E-03
   1.544376937929091E-03   1.559898184196214E-03   1.575575421581678E-03
   1.591410217822282E-03   1.607404156410848E-03   1.623558836754563E-03
   1.639875874334924E-03   1.656356900869286E-03   1.673003564474037E-03
   1.689817529829410E-03   1.706800478345952E-03   1.723954108332667E-03
   1.741280135166848E-03   1.758780291465617E-03   1.776456327259189E-03
   1.794310010165871E-03   1.812343125568833E-03   1.830557476794643E-03
   1.848954885293603E-03   1.867537190821893E-03   1.886306251625550E-03
   1.905263944626297E-03   1.924412165609232E-03   1.943752829412412E-03
   1.963287870118330E-03   1.983019241247340E-03   2.002948915952995E-03
   2.023078887219378E-03   2.043411168060385E-03   2.063947791721046E-03
   2.084690811880842E-03   2.105642302859076E-03   2.126804359822301E-03
   2.148179098993852E-03   2.169768657865457E-03   2.191575195410998E-03
   2.213600892302396E-03   2.235847951127698E-03   2.258318596611326E-03
   2.281015075836555E-03   2.303939658470219E-03   2.327094636989685E-03
   2.350482326912102E-03   2.374105067025955E-03   2.397965219624935E-03
   2.422065170744189E-03   2.446407330398911E-03   2.470994132825356E-03
   2.495828036724248E-03   2.520911525506678E-03   2.546247107542424E-03
   2.571837316410805E-03   2.597684711154034E-03   2.623791876533120E-03
   2.650161423286360E-03   2.676795988390404E-03   2.703698235323960E-03
   2.730870854334136E-03   2.758316562705478E-03   2.786038105031696E-03
   2.814038253490125E-03   2.842319808118941E-03   2.870885597097176E-03
   2.899738477027534E-03   2.928881333222053E-03   2.958317079990635E-03
   2.988048660932489E-03   3.018079049230484E-03   3.048411247948479E-03
   3.079048290331619E-03   3.109993240109672E-03   3.141249191803407E-03
   3.172819271034041E-03   3.204706634835801E-03   3.236914471971642E-03
   3.269446003252118E-03   3.302304481857467E-03   3.335493193662934E-03
   3.369015457567351E-03   3.402874625825047E-03   3.437074084381064E-03
   3.471617253209760E-03   3.506507586656798E-03   3.541748573784600E-03
   3.577343738721249E-03   3.613296641012902E-03   3.649610875979744E-03
   3.686290075075537E-03   3.723337906250756E-03   3.760758074319395E-03
   3.798554321329438E-03   3.836730426937086E-03   3.875290208784715E-03
   3.914237522882644E-03   3.953576263994734E-03   3.993310366027882E-03
   4.033443802425401E-03   4.073980586564382E-03   4.114924772157010E-03
   4.156280453655969E-03   4.198051766663873E-03   4.240242888346830E-03
   4.282858037852174E-03   4.325901476730359E-03   4.369377509361149E-03
   4.413290483384033E-03   4.457644790133014E-03   4.502444865075722E-03
   4.547695188256986E-03   4.593400284746834E-03   4.639564725093009E-03
   4.686193125778004E-03   4.733290149680752E-03   4.780860506542890E-03
   4.828908953439749E-03   4.877440295256052E-03   4.926459385166429E-03
   4.975971125120719E-03   5.025980466334181E-03   5.076492409782603E-03
   5.127512006702428E-03   5.179044359095865E-03   5.231094620241098E-03
   5.283667995207614E-03   5.336769741376720E-03   5.390405168967287E-03
   5.444579641566771E-03   5.499298576667581E-03   5.554567446208816E-03
   5.610391777123494E-03   5.666777151891227E-03   5.723729209096484E-03
   5.781253643992435E-03   5.839356209070513E-03   5.898042714635644E-03
   5.957319029387297E-03   6.017191081006333E-03   6.077664856747811E-03
   6.138746404039701E-03   6.200441831087640E-03   6.262757307485734E-03
   6.325699064833558E-03   6.389273397359300E-03   6.453486662549196E-03
   6.518345281783263E-03   6.583855740977483E-03   6.650024591232364E-03
   6.716858449488080E-03   6.784363999186140E-03   6.852547990937773E-03
   6.921417243198977E-03   6.990978642952368E-03   7.061239146395894E-03
   7.132205779638439E-03   7.203885639402474E-03   7.276285893733705E-03
   7.349413782717910E-03   7.423276619204910E-03   7.497881789539916E-03
   7.573236754302131E-03   7.649349049050836E-03   7.726226285078917E-03
   7.803876150174049E-03   7.882306409387451E-03   7.961524905810409E-03
   8.041539561358568E-03   8.122358377564167E-03   8.203989436376177E-03
   8.286440900968514E-03   8.369721016556329E-03   8.453838111220592E-03
   8.538800596740864E-03   8.624616969436510E-03   8.711295811016295E-03
   8.798845789436620E-03   8.887275659768287E-03   8.976594265072016E-03
   9.066810537282779E-03   9.157933498102965E-03   9.249972259904598E-03
   9.342936026640557E-03   9.436834094764994E-03   9.531675854162954E-03
   9.627470789089420E-03   9.724228479117712E-03   9.821958600097479E-03
   9.920670925122239E-03   1.002037532550676E-02   1.012108177177418E-02
   1.022280033465304E-02   1.032554118608439E-02   1.042931460023900E-02
   1.053413095454475E-02   1.064000073072444E-02   1.074693451584389E-02
   1.085494300337073E-02   1.096403699424372E-02   1.107422739795288E-02
   1.118552523363038E-02   1.129794163115254E-02   1.141148783225280E-02
   1.152617519164588E-02   1.164201517816333E-02   1.175901937590029E-02
   1.187719948537405E-02   1.199656732469405E-02   1.211713483074371E-02
   1.223891406037407E-02   1.236191719160960E-02   1.248615652486593E-02
   1.261164448417991E-02   1.273839361845204E-02   1.286641660270138E-02
   1.299572623933304E-02   1.312633545941846E-02   1.325825732398845E-02
   1.339150502533942E-02   1.352609188835256E-02   1.366203137182632E-02
   1.379933706982232E-02   1.393802271302478E-02   1.407810217011361E-02
   1.421958944915125E-02   1.436249869898349E-02   1.450684421065442E-02
   1.465264041883549E-02   1.479990190326903E-02   1.494864339022618E-02
   1.509887975397959E-02   1.525062601829084E-02   1.540389735791282E-02
   1.555870910010723E-02   1.571507672617727E-02   1.587301587301587E-02
   1.603254233466933E-02   1.619367206391675E-02   1.635642117386534E-02
   1.652080593956173E-02   1.668684279961944E-02   1.685454835786286E-02
   1.702393938498757E-02   1.719503282023744E-02   1.736784577309857E-02
   1.754239552501027E-02   1.771869953109318E-02   1.789677542189487E-02
   1.807664100515274E-02   1.825831426757505E-02   1.844181337663942E-02
   1.862715668240969E-02   1.881436271937088E-02   1.900345020828270E-02
   1.919443805805160E-02   1.938734536762173E-02   1.958219142788483E-02
   1.977899572360923E-02   1.997777793538854E-02   2.017855794160960E-02
   2.038135582044034E-02   2.058619185183765E-02   2.079308651957535E-02
   2.100206051329263E-02   2.121313473056307E-02   2.142633027898419E-02
   2.164166847828855E-02   2.185917086247552E-02   2.207885918196477E-02
   2.230075540577132E-02   2.252488172370249E-02   2.275126054857682E-02
   2.297991451846549E-02   2.321086649895596E-02   2.344413958543878E-02
   2.367975710541700E-02   2.391774262083895E-02   2.415811993045450E-02
   2.440091307219494E-02   2.464614632557675E-02   2.489384421412964E-02
   2.514403150784894E-02   2.539673322567240E-02   2.565197463798245E-02
   2.590978126913300E-02   2.617017890000203E-02   2.643319357056962E-02
   2.669885158252200E-02   2.696717950188174E-02   2.723820416166444E-02
   2.751195266456185E-02   2.778845238565241E-02   2.806773097513866E-02
   2.834981636111228E-02   2.863473675234693E-02   2.892252064111918E-02
   2.921319680605772E-02   2.950679431502133E-02   2.980334252800547E-02
   3.010287110007861E-02   3.040540998434757E-02   3.071098943495288E-02
   3.101964001009428E-02   3.133139257508646E-02   3.164627830544574E-02
   3.196432869000760E-02   3.228557553407543E-02   3.261005096260141E-02
   3.293778742339879E-02   3.326881769038675E-02   3.360317486686785E-02
   3.394089238883838E-02   3.428200402833197E-02   3.462654389679682E-02
   3.497454644850696E-02   3.532604648400745E-02   3.568107915359480E-02
   3.603967996083185E-02   3.640188476609815E-02   3.676772979017606E-02
   3.713725161787286E-02   3.751048720167926E-02   3.788747386546475E-02
   3.826824930820970E-02   3.865285160777581E-02   3.904131922471350E-02
   3.943369100610820E-02   3.983000618946504E-02   4.023030440663260E-02
   4.063462568776620E-02   4.104301046533094E-02   4.145549957814476E-02
   4.187213427546277E-02   4.229295622110188E-02   4.271800749760735E-02
   4.314733061046103E-02   4.358096849233200E-02   4.401896450736979E-02
   4.446136245554091E-02   4.490820657700892E-02   4.535954155655818E-02
   4.581541252806286E-02   4.627586507899996E-02   4.674094525500832E-02
   4.721069956449309E-02   4.768517498327670E-02   4.816441895929641E-02
   4.864847941734929E-02   4.913740476388435E-02   4.963124389184377E-02
   5.013004618555189E-02   5.063386152565373E-02   5.114274029410317E-02
   5.165673337920111E-02   5.217589218068439E-02   5.270026861486590E-02
   5.322991511982582E-02   5.376488466065614E-02   5.430523073475675E-02
   5.485100737718534E-02   5.540226916606097E-02   5.595907122802193E-02
   5.652146924373840E-02   5.708951945348062E-02   5.766327866274305E-02
   5.824280424792455E-02   5.882815416206668E-02   5.941938694064863E-02
   6.001656170744097E-02   6.061973818041802E-02   6.122897667772973E-02
   6.184433812373353E-02   6.246588405508693E-02   6.309367662690081E-02
   6.372777861895561E-02   6.436825344197900E-02   6.501516514398693E-02
   6.566857841668876E-02   6.632855860195627E-02   6.699517169835795E-02
   6.766848436775909E-02   6.834856394198746E-02   6.903547842956737E-02
   6.972929652251998E-02   7.043008760323279E-02   7.113792175139785E-02
   7.185286975101986E-02   7.257500309749455E-02   7.330439400475837E-02
   7.404111541251000E-02   7.478524099350388E-02   7.553684516091837E-02
   7.629600307579651E-02   7.706279065456244E-02   7.783728457661303E-02
   7.861956229198593E-02   7.940970202910452E-02   8.020778280260114E-02
   8.101388442121793E-02   8.182808749578864E-02   8.265047344729921E-02
   8.348112451503015E-02   8.432012376478043E-02   8.516755509717418E-02
   8.602350325605085E-02   8.688805383693976E-02   8.776129329561919E-02
   8.864330895676281E-02   8.953418902267180E-02   9.043402258209512E-02
   9.134289961913858E-02   9.226091102226329E-02   9.318814859337458E-02
   9.412470505700225E-02   9.507067406957331E-02   9.602615022877699E-02
   9.699122908302560E-02   9.796600714100881E-02   9.895058188134472E-02
   9.994505176232787E-02   1.009495162317751E-01   1.019640757369703E-01
   1.029888317347098E-01   1.040238867014469E-01   1.050693441435410E-01
   1.061253086076075E-01   1.071918856909728E-01   1.082691820522341E-01
   1.093573054219253E-01   1.104563646132900E-01   1.115664695331635E-01
   1.126877311929625E-01   1.138202617197876E-01   1.149641743676352E-01
   1.161195835287233E-01   1.172866047449310E-01   1.184653547193523E-01
   1.196559513279670E-01   1.208585136314281E-01   1.220731618869683E-01
   1.233000175604250E-01   1.245392033383881E-01   1.257908431404681E-01
   1.270550621316882E-01   1.283319867350009E-01   1.296217446439309E-01
   1.309244648353438E-01   1.322402775823444E-01   1.335693144673037E-01
   1.349117083950179E-01   1.362675936059984E-01   1.376371056898961E-01
   1.390203815990609E-01   1.404175596622362E-01   1.418287795983928E-01
   1.432541825307005E-01   1.446939110006399E-01   1.461481089822581E-01
   1.476169218965649E-01   1.491004966260759E-01   1.505989815295004E-01
   1.521125264565774E-01   1.536412827630609E-01   1.551854033258555E-01
   1.567450425583046E-01   1.583203564256306E-01   1.599115024605332E-01
   1.615186397789419E-01   1.631419290959278E-01   1.647815327417753E-01
   1.664376146782154E-01   1.681103405148218E-01   1.697998775255724E-01
   1.715063946655757E-01   1.732300625879679E-01   1.749710536609778E-01
   1.767295419851636E-01   1.785057034108229E-01   1.802997155555786E-01
   1.821117578221401E-01   1.839420114162445E-01   1.857906593647756E-01
   1.876578865340693E-01   1.895438796483986E-01   1.914488273086463E-01
   1.933729200111662E-01   1.953163501668319E-01   1.972793121202784E-01
   1.992620021693369E-01   2.012646185846649E-01   2.032873616295721E-01
   2.053304335800489E-01   2.073940387449931E-01   2.094783834866406E-01
   2.115836762412027E-01   2.137101275397093E-01   2.158579500290622E-01
   2.180273584933006E-01   2.202185698750780E-01   2.224318032973591E-01
   2.246672800853303E-01   2.269252237885334E-01   2.292058602032203E-01
   2.315094173949331E-01   2.338361257213105E-01   2.361862178551246E-01
   2.385599288075463E-01   2.409574959516493E-01   2.433791590461461E-01
   2.458251602593641E-01   2.482957441934630E-01   2.507911579088952E-01
   2.533116509491115E-01   2.558574753655165E-01   2.584288857426737E-01
   2.610261392237629E-01   2.636494955362969E-01   2.662992170180933E-01
   2.689755686435082E-01   2.716788180499345E-01   2.744092355645656E-01
   2.771670942314282E-01   2.799526698386879E-01   2.827662409462256E-01
   2.856080889134973E-01   2.884784979276677E-01   2.913777550320306E-01