<UPF version="2.0.1">
  <PP_INFO>
    Generated using "atomic" code by A. Dal Corso  v.6.8
    Author: D.C.
    Generation date: 23Oct2024
    Pseudopotential type: USPP
    Element: La
    Functional: PBE
    Suggested minimum cutoff for wavefunctions:  51. Ry
    Suggested minimum cutoff for charge density: 206. Ry
    The Pseudo was generated with a Scalar-Relativistic Calculation
    L component and cutoff radius for Local Potential:  2   2.1000
    Pseudopotential contains additional information for GIPAW reconstruction.
    Valence configuration: 
    nl pn  l   occ       Rcut    Rcut US       E pseu
    4F  4  3  0.00      1.400      2.300    -0.319445
    5F  5  3  0.00      1.400      2.300     0.000366
    5P  2  1  6.00      1.400      2.100    -1.646435
    6P  3  1  0.00      1.400      2.100    -0.099386
    5S  1  0  2.00      1.400      2.100    -2.860914
    6S  2  0  2.00      1.400      2.100    -0.270442
    5D  3  2  1.00      4.438      4.881    -0.227148
    Generation configuration:
    4F  4  3  0.00      1.400      2.300    -0.319357
    5F  5  3  0.00      1.400      2.300     0.500000
    5P  2  1  6.00      1.400      2.100    -1.646385
    6P  3  1  0.00      1.400      2.100     0.750000
    5S  1  0  2.00      1.400      2.100    -2.860857
    6S  2  0  2.00      1.400      2.100    -0.270435
    5D  3  2  1.00      2.100      2.100    -0.227131
    Pseudization used: troullier-martins
    <PP_INPUTFILE>
@input
title = 'La'
prefix = 'la'
verbosity = 'high'
zed = 57
dft = 'pbe'
rel = 1
iswitch = 3
beta = 0.2
xmin = -8.0, dx = 0.01
nld = 4, rlderiv = 3.4, eminld  = -5.0, emaxld  = 5.0, deld = 0.002
/
16
1S  1  0   2.0
2S  2  0   2.0
2P  2  1   6.0
3S  3  0   2.0
3P  3  1   6.0
3D  3  2  10.0
4S  4  0   2.0
4P  4  1   6.0
4D  4  2  10.0
5S  5  0   2.0
5P  5  1   6.0
5D  5  2   1.0
4F  4  3   0.0
6S  6  0   2.0
6P  6  1   0.0
5F  5  3   0.0
@inputp
pseudotype = 3
lloc = 2
rcloc = 2.1
tm = .true.
nlcc = .true.
new_core_ps = .true.
rcore = 1.4
file_core = 'la.core'
file_pseudopw = 'La.pbe-rrkjus-semi-gipaw-dc.UPF'
lgipaw_reconstruction = .true.
!upf_v1_format = .true.
author = 'D.C.'
/
7
4F  4  3  0.0  0.00  1.40  2.30
5F  5  3  0.0  0.50  1.40  2.30
5P  2  1  6.0  0.00  1.40  2.10
6P  3  1  0.0  0.75  1.40  2.10
5S  1  0  2.0  0.00  1.40  2.10
6S  2  0  2.0  0.00  1.40  2.10
5D  3  2  1.0  0.00  2.10  2.10
@test
ecutmin = 40
ecutmax = 90
decut   = 10
/
7
4F  4  3  0.0  0.00  1.40  2.30
5F  5  3  0.0  0.50  1.40  2.30
5P  2  1  6.0  0.00  1.40  2.10
6P  3  1  0.0  0.75  1.40  2.10
5S  1  0  2.0  0.00  1.40  2.10
6S  2  0  2.0  0.00  1.40  2.10
5D  3  2  1.0  0.00  2.10  2.10

    </PP_INPUTFILE>
  </PP_INFO>
    <!-- END OF HUMAN READABLE SECTION -->
  <PP_HEADER generated="Generated using 'atomic' code by A. Dal Corso  v.6.8" author="D.C." date="23Oct2024" comment="" element="La" pseudo_type="USPP" relativistic="scalar" is_ultrasoft="true" is_paw="false" is_coulomb="false" has_so="false" has_wfc="false" has_gipaw="true" paw_as_gipaw="false" core_correction="true" functional="PBE" z_valence="11.0000000000000" total_psenergy="-85.6687063096833" wfc_cutoff="51.4710819079585" rho_cutoff="205.884327631834" l_max="3" l_max_rho="6" l_local="2" mesh_size="1665" number_of_wfc="7" number_of_proj="6"/>
  <PP_MESH mesh="1665" dx="1.000000000000000E-002" xmin="-8.00000000000000" rmax="100.000000000000" zmesh="57.0000000000000">
    <PP_R>
   5.885309261447576E-06   5.944457602867125E-06   6.004200395000691E-06
   6.064543612177279E-06   6.125493288768884E-06   6.187055519793960E-06
   6.249236461526913E-06   6.312042332113738E-06   6.375479412193821E-06
   6.439554045528041E-06   6.504272639633127E-06   6.569641666422427E-06
   6.635667662853084E-06   6.702357231579767E-06   6.769717041614924E-06
   6.837753828995698E-06   6.906474397457514E-06   6.975885619114488E-06
   7.045994435146633E-06   7.116807856493979E-06   7.188332964557664E-06
   7.260576911908099E-06   7.333546923000226E-06   7.407250294895971E-06
   7.481694397993927E-06   7.556886676766448E-06   7.632834650504072E-06
   7.709545914067464E-06   7.787028138646913E-06   7.865289072529431E-06
   7.944336541873630E-06   8.024178451492322E-06   8.104822785643005E-06
   8.186277608826288E-06   8.268551066592375E-06   8.351651386355603E-06
   8.435586878217207E-06   8.520365935796303E-06   8.605997037069308E-06
   8.692488745217707E-06   8.779849709484401E-06   8.868088666038601E-06
   8.957214438849506E-06   9.047235940568664E-06   9.138162173421274E-06
   9.230002230106382E-06   9.322765294706192E-06   9.416460643604471E-06
   9.511097646414194E-06   9.606685766914492E-06   9.703234563997081E-06
   9.800753692622125E-06   9.899252904783751E-06   9.998742050485271E-06
   1.009923107872414E-05   1.020073003848694E-05   1.030324907975423E-05
   1.040679845451556E-05   1.051138851779470E-05   1.061702972868514E-05
   1.072373265139601E-05   1.083150795630849E-05   1.094036642104288E-05
   1.105031893153639E-05   1.116137648313167E-05   1.127355018167645E-05
   1.138685124463405E-05   1.150129100220519E-05   1.161688089846099E-05
   1.173363249248741E-05   1.185155745954113E-05   1.197066759221713E-05
   1.209097480162795E-05   1.221249111859478E-05   1.233522869485058E-05
   1.245919980425525E-05   1.258441684402304E-05   1.271089233596229E-05
   1.283863892772759E-05   1.296766939408456E-05   1.309799663818735E-05
   1.322963369286902E-05   1.336259372194469E-05   1.349689002152808E-05
   1.363253602136108E-05   1.376954528615670E-05   1.390793151695560E-05
   1.404770855249617E-05   1.418889037059845E-05   1.433149108956190E-05
   1.447552496957727E-05   1.462100641415257E-05   1.476794997155349E-05
   1.491637033625824E-05   1.506628235042697E-05   1.521770100538601E-05
   1.537064144312705E-05   1.552511895782131E-05   1.568114899734901E-05
   1.583874716484410E-05   1.599792922025467E-05   1.615871108191892E-05
   1.632110882815700E-05   1.648513869887888E-05   1.665081709720829E-05
   1.681816059112316E-05   1.698718591511233E-05   1.715790997184903E-05
   1.733034983388122E-05   1.750452274533881E-05   1.768044612365808E-05
   1.785813756132348E-05   1.803761482762684E-05   1.821889587044435E-05
   1.840199881803139E-05   1.858694198083526E-05   1.877374385332639E-05
   1.896242311584769E-05   1.915299863648265E-05   1.934548947294214E-05
   1.953991487447023E-05   1.973629428376908E-05   1.993464733894326E-05
   2.013499387546362E-05   2.033735392815073E-05   2.054174773317850E-05
   2.074819573009777E-05   2.095671856388027E-05   2.116733708698316E-05
   2.138007236143425E-05   2.159494566093826E-05   2.181197847300424E-05
   2.203119250109420E-05   2.225260966679366E-05   2.247625211200371E-05
   2.270214220115523E-05   2.293030252344540E-05   2.316075589509654E-05
   2.339352536163788E-05   2.362863420021008E-05   2.386610592189287E-05
   2.410596427405635E-05   2.434823324273560E-05   2.459293705502938E-05
   2.484010018152285E-05   2.508974733873464E-05   2.534190349158848E-05
   2.559659385590980E-05   2.585384390094730E-05   2.611367935191981E-05
   2.637612619258899E-05   2.664121066785760E-05   2.690895928639409E-05
   2.717939882328344E-05   2.745255632270468E-05   2.772845910063539E-05
   2.800713474758331E-05   2.828861113134533E-05   2.857291639979440E-05
   2.886007898369429E-05   2.915012759954270E-05   2.944309125244294E-05
   2.973899923900439E-05   3.003788115027233E-05   3.033976687468697E-05
   3.064468660107228E-05   3.095267082165501E-05   3.126375033511389E-05
   3.157795624965949E-05   3.189531998614511E-05   3.221587328120890E-05
   3.253964819044742E-05   3.286667709162146E-05   3.319699268789368E-05
   3.353062801109891E-05   3.386761642504753E-05   3.420799162886177E-05
   3.455178766034564E-05   3.489903889938884E-05   3.524978007140457E-05
   3.560404625080235E-05   3.596187286449539E-05   3.632329569544317E-05
   3.668835088623000E-05   3.705707494267919E-05   3.742950473750365E-05
   3.780567751399325E-05   3.818563088973905E-05   3.856940286039529E-05
   3.895703180347887E-05   3.934855648220708E-05   3.974401604937407E-05
   4.014345005126613E-05   4.054689843161630E-05   4.095440153559883E-05
   4.136600011386374E-05   4.178173532661177E-05   4.220164874771069E-05
   4.262578236885258E-05   4.305417860375293E-05   4.348688029239225E-05
   4.392393070530000E-05   4.436537354788168E-05   4.481125296478944E-05
   4.526161354433649E-05   4.571650032295611E-05   4.617595878970527E-05
   4.664003489081346E-05   4.710877503427755E-05   4.758222609450251E-05
   4.806043541698892E-05   4.854345082306752E-05   4.903132061468147E-05
   4.952409357921643E-05   5.002181899437955E-05   5.052454663312707E-05
   5.103232676864182E-05   5.154521017936053E-05   5.206324815405165E-05
   5.258649249694436E-05   5.311499553290904E-05   5.364881011268960E-05
   5.418798961818898E-05   5.473258796780693E-05   5.528265962183230E-05
   5.583825958788889E-05   5.639944342643632E-05   5.696626725632607E-05
   5.753878776041356E-05   5.811706219122619E-05   5.870114837668903E-05
   5.929110472590729E-05   5.988699023500755E-05   6.048886449303731E-05
   6.109678768792392E-05   6.171082061249347E-05   6.233102467055015E-05
   6.295746188301663E-05   6.359019489413606E-05   6.422928697773698E-05
   6.487480204356022E-05   6.552680464365030E-05   6.618535997881061E-05
   6.685053390512345E-05   6.752239294053578E-05   6.820100427151106E-05
   6.888643575974779E-05   6.957875594896611E-05   7.027803407176176E-05
   7.098434005652981E-05   7.169774453445731E-05   7.241831884658659E-05
   7.314613505094933E-05   7.388126592977255E-05   7.462378499675658E-05
   7.537376650442708E-05   7.613128545155963E-05   7.689641759068029E-05
   7.766923943564055E-05   7.844982826926897E-05   7.923826215109941E-05
   8.003461992517706E-05   8.083898122794301E-05   8.165142649619776E-05
   8.247203697514527E-05   8.330089472651715E-05   8.413808263677932E-05
   8.498368442542048E-05   8.583778465332414E-05   8.670046873122487E-05
   8.757182292824942E-05   8.845193438054349E-05   8.934089109998588E-05
   9.023878198298918E-05   9.114569681939003E-05   9.206172630142780E-05
   9.298696203281407E-05   9.392149653789303E-05   9.486542327089404E-05
   9.581883662527682E-05   9.678183194317152E-05   9.775450552491224E-05
   9.873695463866781E-05   9.972927753016833E-05   1.007315734325299E-04
   1.017439425761779E-04   1.027664861988705E-04   1.037993065558221E-04
   1.048425069299288E-04   1.058961916420977E-04   1.069604660616779E-04
   1.080354366169982E-04   1.091212108060100E-04   1.102178972070371E-04
   1.113256054896335E-04   1.124444464255506E-04   1.135745318998141E-04
   1.147159749219135E-04   1.158688896371020E-04   1.170333913378118E-04
   1.182095964751836E-04   1.193976226707113E-04   1.205975887280044E-04
   1.218096146446687E-04   1.230338216243057E-04   1.242703320886338E-04
   1.255192696897296E-04   1.267807593223941E-04   1.280549271366418E-04
   1.293419005503160E-04   1.306418082618305E-04   1.319547802630397E-04
   1.332809478522380E-04   1.346204436472893E-04   1.359734015988895E-04
   1.373399570039609E-04   1.387202465191832E-04   1.401144081746579E-04
   1.415225813877125E-04   1.429449069768418E-04   1.443815271757900E-04
   1.458325856477740E-04   1.472982274998505E-04   1.487785992974258E-04
   1.502738490789134E-04   1.517841263705374E-04   1.533095822012858E-04
   1.548503691180127E-04   1.564066412006939E-04   1.579785540778344E-04
   1.595662649420320E-04   1.611699325656960E-04   1.627897173169253E-04
   1.644257811755449E-04   1.660782877493039E-04   1.677474022902369E-04
   1.694332917111889E-04   1.711361246025071E-04   1.728560712488992E-04
   1.745933036464636E-04   1.763479955198875E-04   1.781203223398204E-04
   1.799104613404214E-04   1.817185915370824E-04   1.835448937443297E-04
   1.853895505939062E-04   1.872527465530338E-04   1.891346679428613E-04
   1.910355029570956E-04   1.929554416808225E-04   1.948946761095141E-04
   1.968534001682295E-04   1.988318097310068E-04   2.008301026404511E-04
   2.028484787275182E-04   2.048871398314992E-04   2.069462898202030E-04
   2.090261346103447E-04   2.111268821881364E-04   2.132487426300866E-04
   2.153919281240077E-04   2.175566529902350E-04   2.197431337030594E-04
   2.219515889123738E-04   2.241822394655399E-04   2.264353084294715E-04
   2.287110211129427E-04   2.310096050891184E-04   2.333312902183117E-04
   2.356763086709702E-04   2.380448949508936E-04   2.404372859186832E-04
   2.428537208154301E-04   2.452944412866370E-04   2.477596914063853E-04
   2.502497177017413E-04   2.527647691774096E-04   2.553050973406338E-04
   2.578709562263471E-04   2.604626024225760E-04   2.630802950961003E-04
   2.657242960183683E-04   2.683948695916758E-04   2.710922828756055E-04
   2.738168056137339E-04   2.765687102606050E-04   2.793482720089769E-04
   2.821557688173409E-04   2.849914814377170E-04   2.878556934437309E-04
   2.907486912589694E-04   2.936707641856252E-04   2.966222044334259E-04
   2.996033071488560E-04   3.026143704446713E-04   3.056556954297108E-04
   3.087275862390069E-04   3.118303500642010E-04   3.149642971842608E-04
   3.181297409965101E-04   3.213269980479680E-04   3.245563880670042E-04
   3.278182339953119E-04   3.311128620202016E-04   3.344406016072217E-04
   3.378017855331039E-04   3.411967499190421E-04   3.446258342643035E-04
   3.480893814801805E-04   3.515877379242810E-04   3.551212534351646E-04
   3.586902813673274E-04   3.622951786265363E-04   3.659363057055214E-04
   3.696140267200249E-04   3.733287094452136E-04   3.770807253524548E-04
   3.808704496464662E-04   3.846982613028353E-04   3.885645431059180E-04
   3.924696816871158E-04   3.964140675635414E-04   4.003980951770697E-04
   4.044221629337821E-04   4.084866732438072E-04   4.125920325615633E-04
   4.167386514264034E-04   4.209269445036699E-04   4.251573306261601E-04
   4.294302328360118E-04   4.337460784270068E-04   4.381052989873012E-04
   4.425083304425828E-04   4.469556130996670E-04   4.514475916905252E-04
   4.559847154167607E-04   4.605674379945258E-04   4.651962176998979E-04
   4.698715174147048E-04   4.745938046728140E-04   4.793635517068872E-04
   4.841812354956015E-04   4.890473378113511E-04   4.939623452684227E-04
   4.989267493716583E-04   5.039410465656041E-04   5.090057382841588E-04
   5.141213310007149E-04   5.192883362788072E-04   5.245072708232688E-04
   5.297786565319036E-04   5.351030205476751E-04   5.404808953114226E-04
   5.459128186151031E-04   5.513993336555738E-04   5.569409890889112E-04
   5.625383390852769E-04   5.681919433843343E-04   5.739023673512249E-04
   5.796701820331041E-04   5.854959642162473E-04   5.913802964837266E-04
   5.973237672736727E-04   6.033269709381177E-04   6.093905078024307E-04
   6.155149842253516E-04   6.217010126596253E-04   6.279492117132508E-04
   6.342602062113405E-04   6.406346272586038E-04   6.470731123024564E-04
   6.535763051967686E-04   6.601448562662491E-04   6.667794223714795E-04
   6.734806669745978E-04   6.802492602056493E-04   6.870858789295977E-04
   6.939912068140131E-04   7.009659343974371E-04   7.080107591584412E-04
   7.151263855853722E-04   7.223135252468027E-04   7.295728968626874E-04
   7.369052263762378E-04   7.443112470265156E-04   7.517916994217579E-04
   7.593473316134372E-04   7.669788991710692E-04   7.746871652577695E-04
   7.824729007065704E-04   7.903368840975057E-04   7.982799018354662E-04
   8.063027482288457E-04   8.144062255689693E-04   8.225911442103247E-04
   8.308583226515953E-04   8.392085876175152E-04   8.476427741415398E-04
   8.561617256493505E-04   8.647662940431959E-04   8.734573397870867E-04
   8.822357319928397E-04   8.911023485069917E-04   9.000580759985814E-04
   9.091038100478217E-04   9.182404552356558E-04   9.274689252342173E-04
   9.367901428981949E-04   9.462050403571231E-04   9.557145591085940E-04
   9.653196501124080E-04   9.750212738856682E-04   9.848204005988373E-04
   9.947180101727527E-04   1.004715092376620E-03   1.014812646926991E-03
   1.025011683587734E-03   1.035313222271015E-03   1.045718293139287E-03
   1.056227936708308E-03   1.066843203951193E-03   1.077565156403511E-03
   1.088394866269444E-03   1.099333416529003E-03   1.110381901046329E-03
   1.121541424679080E-03   1.132813103388921E-03   1.144198064353115E-03
   1.155697446077245E-03   1.167312398509068E-03   1.179044083153504E-03
   1.190893673188798E-03   1.202862353583824E-03   1.214951321216596E-03
   1.227161784993954E-03   1.239494965972449E-03   1.251952097480457E-03
   1.264534425241511E-03   1.277243207498870E-03   1.290079715141352E-03
   1.303045231830419E-03   1.316141054128543E-03   1.329368491628868E-03
   1.342728867086166E-03   1.356223516549119E-03   1.369853789493915E-03
   1.383621048959210E-03   1.397526671682421E-03   1.411572048237412E-03
   1.425758583173539E-03   1.440087695156119E-03   1.454560817108292E-03
   1.469179396354316E-03   1.483944894764294E-03   1.498858788900373E-03
   1.513922570164395E-03   1.529137744947041E-03   1.544505834778466E-03
   1.560028376480462E-03   1.575706922320134E-03   1.591543040165132E-03
   1.607538313640436E-03   1.623694342286724E-03   1.640012741720324E-03
   1.656495143794777E-03   1.673143196764029E-03   1.689958565447246E-03
   1.706942931395311E-03   1.724097993058974E-03   1.741425465958697E-03
   1.758927082856206E-03   1.776604593927779E-03   1.794459766939253E-03
   1.812494387422811E-03   1.830710258855527E-03   1.849109202839725E-03
   1.867693059285137E-03   1.886463686592895E-03   1.905422961841369E-03
   1.924572780973884E-03   1.943915058988313E-03   1.963451730128578E-03
   1.983184748078068E-03   2.003116086155026E-03   2.023247737509869E-03
   2.043581715324509E-03   2.064120053013671E-03   2.084864804428239E-03
   2.105818044060644E-03   2.126981867252309E-03   2.148358390403192E-03
   2.169949751183418E-03   2.191758108747060E-03   2.213785643948048E-03
   2.236034559558260E-03   2.258507080487793E-03   2.281205454007472E-03
   2.304131949973562E-03   2.327288861054768E-03   2.350678502961491E-03
   2.374303214677416E-03   2.398165358693400E-03   2.422267321243735E-03
   2.446611512544754E-03   2.471200367035877E-03   2.496036343623045E-03
   2.521121925924614E-03   2.546459622519715E-03   2.572051967199126E-03
   2.597901519218639E-03   2.624010863555003E-03   2.650382611164402E-03
   2.677019399243577E-03   2.703923891493534E-03   2.731098778385919E-03
   2.758546777432064E-03   2.786270633454749E-03   2.814273118862680E-03
   2.842557033927732E-03   2.871125207064985E-03   2.899980495115554E-03
   2.929125783632293E-03   2.958563987168341E-03   2.988298049568588E-03
   3.018330944264045E-03   3.048665674569213E-03   3.079305273982401E-03
   3.110252806489086E-03   3.141511366868303E-03   3.173084081002142E-03
   3.204974106188327E-03   3.237184631455954E-03   3.269718877884386E-03
   3.302580098925382E-03   3.335771580728430E-03   3.369296642469372E-03
   3.403158636682315E-03   3.437360949594901E-03   3.471907001466924E-03
   3.506800246932361E-03   3.542044175344833E-03   3.577642311126552E-03
   3.613598214120762E-03   3.649915479947727E-03   3.686597740364295E-03
   3.723648663627072E-03   3.761071954859262E-03   3.798871356421176E-03
   3.837050648284471E-03   3.875613648410145E-03   3.914564213130347E-03
   3.953906237534012E-03   3.993643655856366E-03   4.033780441872349E-03
   4.074320609294015E-03   4.115268212171888E-03   4.156627345300384E-03
   4.198402144627274E-03   4.240596787667307E-03   4.283215493919948E-03
   4.326262525291344E-03   4.369742186520496E-03   4.413658825609764E-03
   4.458016834259654E-03   4.502820648308000E-03   4.548074748173537E-03
   4.593783659303965E-03   4.639951952628491E-03   4.686584245014917E-03
   4.733685199731351E-03   4.781259526912503E-03   4.829311984030743E-03
   4.877847376371826E-03   4.926870557515436E-03   4.976386429820534E-03
   5.026399944915615E-03   5.076916104193870E-03   5.127939959313325E-03
   5.179476612702005E-03   5.231531218068200E-03   5.284108980915825E-03
   5.337215159064986E-03   5.390855063177743E-03   5.445034057289211E-03
   5.499757559343952E-03   5.555031041737778E-03   5.610860031864983E-03
   5.667250112671105E-03   5.724206923211218E-03   5.781736159213846E-03
   5.839843573650520E-03   5.898534977311113E-03   5.957816239384897E-03
   6.017693288047484E-03   6.078172111053642E-03   6.139258756336060E-03
   6.200959332610178E-03   6.263280009985040E-03   6.326227020580324E-03
   6.389806659149533E-03   6.454025283709515E-03   6.518889316176239E-03
   6.584405243007013E-03   6.650579615849105E-03   6.717419052194949E-03
   6.784930236043880E-03   6.853119918570549E-03   6.921994918800022E-03
   6.991562124289722E-03   7.061828491818174E-03   7.132801048080690E-03
   7.204486890392029E-03   7.276893187396166E-03   7.350027179783139E-03
   7.423896181013141E-03   7.498507578047839E-03   7.573868832089118E-03
   7.649987479325185E-03   7.726871131684195E-03   7.804527477595462E-03
   7.882964282758274E-03   7.962189390918523E-03   8.042210724653042E-03
   8.123036286161900E-03   8.204674158068585E-03   8.287132504228328E-03
   8.370419570544461E-03   8.454543685793028E-03   8.539513262455646E-03
   8.625336797560791E-03   8.712022873533499E-03   8.799580159053610E-03
   8.888017409922627E-03   8.977343469939343E-03   9.067567271784196E-03
   9.158697837912568E-03   9.250744281456997E-03   9.343715807138549E-03
   9.437621712187271E-03   9.532471387271932E-03   9.628274317439064E-03
   9.725040083061527E-03   9.822778360796527E-03   9.921498924553280E-03
   1.002121164647044E-02   1.012192649790328E-02   1.022365355042087E-02
   1.032640297681325E-02   1.043018505210868E-02   1.053501015460116E-02
   1.064088876688831E-02   1.074783147691958E-02   1.085584897905511E-02
   1.096495207513510E-02   1.107515167556010E-02   1.118645880038199E-02
   1.129888458040599E-02   1.141244025830380E-02   1.152713718973784E-02
   1.164298684449683E-02   1.176000080764280E-02   1.187819078066956E-02
   1.199756858267291E-02   1.211814615153254E-02   1.223993554510582E-02
   1.236294894243357E-02   1.248719864495807E-02   1.261269707775309E-02
   1.273945679076650E-02   1.286749046007526E-02   1.299681088915295E-02
   1.312743101015027E-02   1.325936388518816E-02   1.339262270766410E-02
   1.352722080357134E-02   1.366317163283166E-02   1.380048879064128E-02
   1.393918600883043E-02   1.407927715723647E-02   1.422077624509100E-02
   1.436369742242073E-02   1.450805498146250E-02   1.465386335809249E-02
   1.480113713326989E-02   1.494989103449493E-02   1.510013993728172E-02
   1.525189886664572E-02   1.540518299860634E-02   1.556000766170451E-02
   1.571638833853559E-02   1.587434066729754E-02   1.603388044335488E-02
   1.619502362081817E-02   1.635778631413945E-02   1.652218479972367E-02
   1.668823551755639E-02   1.685595507284778E-02   1.702536023769312E-02
   1.719646795275010E-02   1.736929532893278E-02   1.754385964912281E-02
   1.772017836989769E-02   1.789826912327641E-02   1.807814971848274E-02
   1.825983814372613E-02   1.844335256800043E-02   1.862871134290105E-02
   1.881593300445994E-02   1.900503627499927E-02   1.919604006500369E-02
   1.938896347501136E-02   1.958382579752405E-02   1.978064651893643E-02
   1.997944532148461E-02   2.018024208521453E-02   2.038305688996989E-02
   2.058791001740018E-02   2.079482195298887E-02   2.100381338810193E-02
   2.121490522205703E-02   2.142811856421349E-02   2.164347473608323E-02
   2.186099527346284E-02   2.208070192858734E-02   2.230261667230535E-02
   2.252676169627616E-02   2.275315941518898E-02   2.298183246900433E-02
   2.321280372521817E-02   2.344609628114866E-02   2.368173346624568E-02
   2.391973884442418E-02   2.416013621642030E-02   2.440294962217159E-02
   2.464820334322094E-02   2.489592190514485E-02   2.514613008000596E-02
   2.539885288883028E-02   2.565411560410922E-02   2.591194375232708E-02
   2.617236311651352E-02   2.643539973882199E-02   2.670107992313392E-02
   2.696943023768914E-02   2.724047751774273E-02   2.751424886824855E-02
   2.779077166656988E-02   2.807007356521687E-02   2.835218249461218E-02
   2.863712666588385E-02   2.892493457368646E-02   2.921563499905063E-02
   2.950925701226115E-02   2.980582997576403E-02   3.010538354710281E-02
   3.040794768188415E-02   3.071355263677372E-02   3.102222897252168E-02
   3.133400755701883E-02   3.164891956838345E-02   3.196699649807910E-02
   3.228827015406380E-02   3.261277266397095E-02   3.294053647832183E-02
   3.327159437377109E-02   3.360597945638415E-02   3.394372516494792E-02
   3.428486527431473E-02   3.462943389877977E-02   3.497746549549265E-02
   3.532899486790314E-02   3.568405716924127E-02   3.604268790603314E-02
   3.640492294165129E-02   3.677079849990114E-02   3.714035116864342E-02
   3.751361790345295E-02   3.789063603131428E-02   3.827144325435438E-02
   3.865607765361296E-02   3.904457769285034E-02   3.943698222239426E-02
   3.983333048302468E-02   4.023366210989795E-02   4.063801713651038E-02
   4.104643599870159E-02   4.145895953869813E-02   4.187562900919788E-02
   4.229648607749494E-02   4.272157282964695E-02   4.315093177468335E-02
   4.358460584885644E-02   4.402263841993504E-02   4.446507329154130E-02
   4.491195470753106E-02   4.536332735641840E-02   4.581923637584421E-02
   4.627972735709043E-02   4.674484634963891E-02   4.721463986577654E-02
   4.768915488524641E-02   4.816843885994589E-02   4.865253971867187E-02
   4.914150587191364E-02   4.963538621669407E-02   5.013423014145905E-02
   5.063808753101684E-02   5.114700877152627E-02   5.166104475553551E-02
   5.218024688707131E-02   5.270466708677951E-02   5.323435779711709E-02
   5.376937198759658E-02   5.430976316008270E-02   5.485558535414312E-02
   5.540689315245208E-02   5.596374168624886E-02   5.652618664085087E-02
   5.709428426122228E-02   5.766809135759854E-02   5.824766531116757E-02
   5.883306407980748E-02   5.942434620388311E-02   6.002157081209956E-02
   6.062479762741538E-02   6.123408697301476E-02   6.184949977834003E-02
   6.247109758518455E-02   6.309894255384700E-02   6.373309746934759E-02
   6.437362574770608E-02   6.502059144228423E-02   6.567405925019058E-02
   6.633409451875054E-02   6.700076325204096E-02   6.767413211749075E-02
   6.835426845254758E-02   6.904124027141187E-02   6.973511627183775E-02
   7.043596584200357E-02   7.114385906745047E-02   7.185886673809082E-02
   7.258106035528758E-02   7.331051213900430E-02   7.404729503502720E-02
   7.479148272226004E-02   7.554314962009140E-02   7.630237089583761E-02
   7.706922247225893E-02   7.784378103515202E-02   7.862612404101868E-02
   7.941632972481143E-02   8.021447710775714E-02   8.102064600525925E-02
   8.183491703487948E-02   8.265737162439903E-02   8.348809201996241E-02
   8.432716129430140E-02   8.517466335504270E-02   8.603068295309861E-02
   8.689530569114233E-02   8.776861803216816E-02   8.865070730813811E-02
   8.954166172871456E-02   9.044157039008217E-02   9.135052328385702E-02
   9.226861130608595E-02   9.319592626633626E-02   9.413256089687673E-02
   9.507860886195094E-02   9.603416476714395E-02   9.699932416884226E-02
   9.797418358379048E-02   9.895884049874251E-02   9.995339338021039E-02
   1.009579416843111E-01   1.019725858667121E-01   1.029974273926772E-01
   1.040325687472130E-01   1.050781134453179E-01   1.061341660423325E-01
   1.072008321443967E-01   1.082782184190097E-01   1.093664326056968E-01
   1.104655835267834E-01   1.115757810982777E-01   1.126971363408619E-01
   1.138297613909950E-01   1.149737695121255E-01   1.161292751060190E-01
   1.172963937241978E-01   1.184752420794963E-01   1.196659380577324E-01
   1.208686007294963E-01   1.220833503620573E-01   1.233103084313912E-01
   1.245495976343270E-01   1.258013419008178E-01   1.270656664063336E-01
   1.283426975843784E-01   1.296325631391342E-01   1.309353920582315E-01
   1.322513146256477E-01   1.335804624347363E-01   1.349229684013861E-01
   1.362789667773119E-01   1.376485931634816E-01   1.390319845236753E-01
   1.404292791981816E-01   1.418406169176326E-01   1.432661388169763E-01
   1.447059874495905E-01   1.461603068015386E-01   1.476292423059673E-01
   1.491129408576514E-01   1.506115508276824E-01   1.521252220783063E-01
   1.536541059779094E-01   1.551983554161558E-01   1.567581248192762E-01
   1.583335701655111E-01   1.599248490007073E-01   1.615321204540747E-01
   1.631555452540981E-01   1.647952857446102E-01   1.664515059010268E-01
   1.681243713467434E-01   1.698140493696989E-01   1.715207089391035E-01
   1.732445207223367E-01   1.749856571020127E-01   1.767442921932209E-01
   1.785206018609358E-01   1.803147637376044E-01   1.821269572409095E-01
   1.839573635917117E-01   1.858061658321715E-01   1.876735488440537E-01
   1.895596993672152E-01   1.914648060182803E-01   1.933890593095018E-01
   1.953326516678124E-01   1.972957774540675E-01   1.992786329824816E-01
   2.012814165402601E-01   2.033043284074281E-01   2.053475708768573E-01
   2.074113482744977E-01   2.094958669798089E-01   2.116013354463986E-01
   2.137279642228679E-01   2.158759659738668E-01   2.180455555013603E-01
   2.202369497661092E-01   2.224503679093665E-01   2.246860312747902E-01
   2.269441634305804E-01   2.292249901918344E-01   2.315287396431291E-01
   2.338556421613293E-01   2.362059304386261E-01   2.385798395058056E-01
   2.409776067557533E-01   2.433994719671915E-01   2.458456773286600E-01
   2.483164674627335E-01   2.508120894504843E-01   2.533327928561909E-01
   2.558788297522945E-01   2.584504547446064E-01   2.610479249977693E-01
   2.636715002609722E-01   2.663214428939282E-01   2.689980178931088E-01
   2.717014929182445E-01   2.744321383190907E-01   2.771902271624631E-01
   2.799760352595442E-01   2.827898411934656E-01   2.856319263471657E-01
   2.885025749315274E-01   2.914020740138019E-01   2.943307135463137E-01
   2.972887863954565E-01   3.002765883709803E-01   3.032944182555725E-01
   3.063425778347365E-01   3.094213719269708E-01   3.125311084142493E-01
   3.156720982728127E-01   3.188446556042643E-01   3.220490976669811E-01