<UPF version="2.0.1">
  <PP_INFO>
    Generated using "atomic" code by A. Dal Corso  v.6.8
    Author: D.C.
    Generation date: 24Oct2024
    Pseudopotential type: USPP
    Element: Pr
    Functional: PBE
    Suggested minimum cutoff for wavefunctions:  62. Ry
    Suggested minimum cutoff for charge density: 249. Ry
    The Pseudo was generated with a Scalar-Relativistic Calculation
    L component and cutoff radius for Local Potential:  2   2.1000
    Pseudopotential contains additional information for GIPAW reconstruction.
    Valence configuration: 
    nl pn  l   occ       Rcut    Rcut US       E pseu
    4F  4  3  3.00      1.300      2.000    -0.091911
    5F  5  3  0.00      1.300      2.000     0.001207
    5P  2  1  6.00      1.300      1.800    -1.578200
    6P  3  1  0.00      1.300      1.800    -0.091484
    5S  1  0  2.00      1.300      1.600    -2.868396
    6S  2  0  2.00      1.300      1.600    -0.254430
    5D  3  2  0.00      4.552      5.007    -0.148700
    Generation configuration:
    4F  4  3  3.00      1.300      2.000    -0.091882
    5F  5  3  0.00      1.300      2.000     0.500000
    5P  2  1  6.00      1.300      1.800    -1.578175
    6P  3  1  0.00      1.300      1.800     0.500000
    5S  1  0  2.00      1.300      1.600    -2.868371
    6S  2  0  2.00      1.300      1.600    -0.254428
    5D  3  2  0.00      2.100      2.100    -0.148695
    Pseudization used: troullier-martins
    <PP_INPUTFILE>
@input
title = 'Pr'
prefix = 'pr'
verbosity = 'high'
zed = 59
dft = 'pbe'
rel = 1
iswitch = 3
beta = 0.2
xmin = -8.0, dx = 0.01
nld = 4, rlderiv = 3.4, eminld  = -5.0, emaxld  = 5.0, deld = 0.002
/
16
1S  1  0   2.0
2S  2  0   2.0
2P  2  1   6.0
3S  3  0   2.0
3P  3  1   6.0
3D  3  2  10.0
4S  4  0   2.0
4P  4  1   6.0
4D  4  2  10.0
5S  5  0   2.0
5P  5  1   6.0
5D  5  2   0.0
4F  4  3   3.0
6S  6  0   2.0
6P  6  1   0.0
5F  5  3   0.0
@inputp
pseudotype = 3
lloc = 2
rcloc = 2.1
tm = .true.
nlcc = .true.
new_core_ps = .true.
rcore = 1.3
file_core = 'pr.core'
file_pseudopw = 'Pr.pbe-rrkjus-semi-gipaw-dc.UPF'
lgipaw_reconstruction = .true.
!upf_v1_format = .true.
author = 'D.C.'
/
7
4F  4  3  3.0  0.00  1.30  2.00
5F  5  3  0.0  0.50  1.30  2.00
5P  2  1  6.0  0.00  1.30  1.80
6P  3  1  0.0  0.50  1.30  1.80
5S  1  0  2.0  0.00  1.30  1.60
6S  2  0  2.0  0.00  1.30  1.60
5D  3  2  0.0  0.00  2.10  2.10
@test
ecutmin = 20
ecutmax = 60
decut   = 5
/
7
4F  4  3  3.0  0.00  1.30  2.00
5F  5  3  0.0  0.50  1.30  2.00
5P  2  1  6.0  0.00  1.30  1.80
6P  3  1  0.0  0.50  1.30  1.80
5S  1  0  2.0  0.00  1.30  1.60
6S  2  0  2.0  0.00  1.30  1.60
5D  3  2  0.0  0.00  2.10  2.10
    </PP_INPUTFILE>
  </PP_INFO>
    <!-- END OF HUMAN READABLE SECTION -->
  <PP_HEADER generated="Generated using 'atomic' code by A. Dal Corso  v.6.8" author="D.C." date="24Oct2024" comment="" element="Pr" pseudo_type="USPP" relativistic="scalar" is_ultrasoft="true" is_paw="false" is_coulomb="false" has_so="false" has_wfc="false" has_gipaw="true" paw_as_gipaw="false" core_correction="true" functional="PBE" z_valence="13.0000000000000" total_psenergy="-121.151322393507" wfc_cutoff="62.2748874118430" rho_cutoff="249.099549647372" l_max="3" l_max_rho="6" l_local="2" mesh_size="1669" number_of_wfc="7" number_of_proj="6"/>
  <PP_MESH mesh="1669" dx="1.000000000000000E-002" xmin="-8.00000000000000" rmax="100.000000000000" zmesh="59.0000000000000">
    <PP_R>
   5.685807252584947E-06   5.742950565481798E-06   5.800668178221007E-06
   5.858965862611948E-06   5.917849448471634E-06   5.977324824207724E-06
   6.037397937407356E-06   6.098074795431916E-06   6.159361466017759E-06
   6.221264077883023E-06   6.283788821340478E-06   6.346941948916582E-06
   6.410729775976707E-06   6.475158681356724E-06   6.540235108000858E-06
   6.605965563606014E-06   6.672356621272513E-06   6.739414920161455E-06
   6.807147166158612E-06   6.875560132545031E-06   6.944660660674352E-06
   7.014455660656977E-06   7.084952112051067E-06   7.156157064560514E-06
   7.228077638739895E-06   7.300721026706569E-06   7.374094492859867E-06
   7.448205374607550E-06   7.523061083099560E-06   7.598669103969111E-06
   7.675036998081304E-06   7.752172402289191E-06   7.830083030197480E-06
   7.908776672933872E-06   7.988261199928227E-06   8.068544559699481E-06
   8.149634780650522E-06   8.231539971871003E-06   8.314268323948315E-06
   8.397828109786599E-06   8.482227685434083E-06   8.567475490918650E-06
   8.653580051091896E-06   8.740549976481590E-06   8.828393964152756E-06
   8.917120798577351E-06   9.006739352512761E-06   9.097258587889065E-06
   9.188687556705239E-06   9.281035401934341E-06   9.374311358437858E-06
   9.468524753889171E-06   9.563685009706335E-06   9.659801641994244E-06
   9.756884262496206E-06   9.854942579555180E-06   9.953986399084598E-06
   1.005402562554893E-05   1.015507026295420E-05   1.025713041584836E-05
   1.036021629033173E-05   1.046433819507769E-05   1.056950654236347E-05
   1.067573184911142E-05   1.078302473794077E-05   1.089139593822979E-05
   1.100085628718883E-05   1.111141673094400E-05   1.122308832563180E-05
   1.133588223850479E-05   1.144980974904821E-05   1.156488225010808E-05
   1.168111124903039E-05   1.179850836881191E-05   1.191708534926242E-05
   1.203685404817880E-05   1.215782644253074E-05   1.228001462965848E-05
   1.240343082848259E-05   1.252808738072576E-05   1.265399675214711E-05
   1.278117153378871E-05   1.290962444323470E-05   1.303936832588307E-05
   1.317041615623020E-05   1.330278103916833E-05   1.343647621129609E-05
   1.357151504224206E-05   1.370791103600189E-05   1.384567783228861E-05
   1.398482920789669E-05   1.412537907807960E-05   1.426734149794151E-05
   1.441073066384270E-05   1.455556091481928E-05   1.470184673401699E-05
   1.484960275013969E-05   1.499884373891211E-05   1.514958462455752E-05
   1.530184048129006E-05   1.545562653482231E-05   1.561095816388777E-05
   1.576785090177880E-05   1.592632043789994E-05   1.608638261933683E-05
   1.624805345244101E-05   1.641134910443055E-05   1.657628590500669E-05
   1.674288034798694E-05   1.691114909295444E-05   1.708110896692390E-05
   1.725277696602439E-05   1.742617025719881E-05   1.760130617992082E-05
   1.777820224792863E-05   1.795687615097644E-05   1.813734575660347E-05
   1.831962911192065E-05   1.850374444541544E-05   1.868971016877461E-05
   1.887754487872548E-05   1.906726735889555E-05   1.925889658169095E-05
   1.945245171019367E-05   1.964795210007782E-05   1.984541730154533E-05
   2.004486706128089E-05   2.024632132442670E-05   2.044980023657695E-05
   2.065532414579241E-05   2.086291360463527E-05   2.107258937222443E-05
   2.128437241631135E-05   2.149828391537693E-05   2.171434526074934E-05
   2.193257805874319E-05   2.215300413282013E-05   2.237564552577123E-05
   2.260052450192134E-05   2.282766354935550E-05   2.305708538216769E-05
   2.328881294273240E-05   2.352286940399879E-05   2.375927817180804E-05
   2.399806288723394E-05   2.423924742894702E-05   2.448285591560243E-05
   2.472891270825184E-05   2.497744241277959E-05   2.522846988236321E-05
   2.548202021995885E-05   2.573811878081159E-05   2.599679117499090E-05
   2.625806326995180E-05   2.652196119312147E-05   2.678851133451216E-05
   2.705774034936015E-05   2.732967516079125E-05   2.760434296251323E-05
   2.788177122153516E-05   2.816198768091413E-05   2.844502036252962E-05
   2.873089756988560E-05   2.901964789094107E-05   2.931130020096877E-05
   2.960588366544271E-05   2.990342774295484E-05   3.020396218816087E-05
   3.050751705475578E-05   3.081412269847918E-05   3.112380978015097E-05
   3.143660926873734E-05   3.175255244444785E-05   3.207167090186339E-05
   3.239399655309555E-05   3.271956163097812E-05   3.304839869229018E-05
   3.338054062101189E-05   3.371602063161294E-05   3.405487227237390E-05
   3.439712942874125E-05   3.474282632671589E-05   3.509199753627560E-05
   3.544467797483238E-05   3.580090291072397E-05   3.616070796674081E-05
   3.652412912368839E-05   3.689120272398518E-05   3.726196547529714E-05
   3.763645445420840E-05   3.801470710992887E-05   3.839676126803935E-05
   3.878265513427406E-05   3.917242729834117E-05   3.956611673778192E-05
   3.996376282186835E-05   4.036540531554018E-05   4.077108438338151E-05
   4.118084059363725E-05   4.159471492226978E-05   4.201274875705692E-05
   4.243498390173051E-05   4.286146258015687E-05   4.329222744055929E-05
   4.372732155978271E-05   4.416678844760166E-05   4.461067205107119E-05
   4.505901675892148E-05   4.551186740599696E-05   4.596926927773972E-05
   4.643126811471811E-05   4.689791011720082E-05   4.736924194977701E-05
   4.784531074602265E-05   4.832616411321415E-05   4.881185013708886E-05
   4.930241738665397E-05   4.979791491904323E-05   5.029839228442278E-05
   5.080389953094625E-05   5.131448720975958E-05   5.183020638005605E-05
   5.235110861418257E-05   5.287724600279653E-05   5.340867116007528E-05
   5.394543722897740E-05   5.448759788655712E-05   5.503520734933197E-05
   5.558832037870463E-05   5.614699228643886E-05   5.671127894019110E-05
   5.728123676909687E-05   5.785692276941407E-05   5.843839451022248E-05
   5.902571013918073E-05   5.961892838834116E-05   6.021810858002302E-05
   6.082331063274488E-05   6.143459506721620E-05   6.205202301238998E-05
   6.267565621157512E-05   6.330555702861131E-05   6.394178845410518E-05
   6.458441411172944E-05   6.523349826458541E-05   6.588910582162932E-05
   6.655130234416313E-05   6.722015405239098E-05   6.789572783204103E-05
   6.857809124105421E-05   6.926731251634012E-05   6.996346058060060E-05
   7.066660504922224E-05   7.137681623723789E-05   7.209416516635805E-05
   7.281872357207362E-05   7.355056391082880E-05   7.428975936726740E-05
   7.503638386155104E-05   7.579051205675139E-05   7.655221936631638E-05
   7.732158196161173E-05   7.809867677953817E-05   7.888358153022495E-05
   7.967637470480137E-05   8.047713558324538E-05   8.128594424231222E-05
   8.210288156354182E-05   8.292802924134704E-05   8.376146979118334E-05
   8.460328655780029E-05   8.545356372357591E-05   8.631238631693552E-05
   8.717984022085395E-05   8.805601218144460E-05   8.894098981663364E-05
   8.983486162492207E-05   9.073771699423564E-05   9.164964621086373E-05
   9.257074046848777E-05   9.350109187730130E-05   9.444079347322030E-05
   9.538993922718755E-05   9.634862405456941E-05   9.731694382464749E-05
   9.829499537020579E-05   9.928287649721385E-05   1.002806859946078E-04
   1.012885236441685E-04   1.023064902305012E-04   1.033346875511125E-04
   1.043732184265915E-04   1.054221867108911E-04   1.064816973017139E-04
   1.075518561510019E-04   1.086327702755319E-04   1.097245477676170E-04
   1.108272978059164E-04   1.119411306663527E-04   1.130661577331402E-04
   1.142024915099232E-04   1.153502456310262E-04   1.165095348728178E-04
   1.176804751651884E-04   1.188631836031428E-04   1.200577784585106E-04
   1.212643791917726E-04   1.224831064640078E-04   1.237140821489590E-04
   1.249574293452205E-04   1.262132723885481E-04   1.274817368642926E-04
   1.287629496199588E-04   1.300570387778896E-04   1.313641337480796E-04
   1.326843652411148E-04   1.340178652812448E-04   1.353647672195848E-04
   1.367252057474511E-04   1.380993169098302E-04   1.394872381189836E-04
   1.408891081681885E-04   1.423050672456183E-04   1.437352569483605E-04
   1.451798202965773E-04   1.466389017478074E-04   1.481126472114117E-04
   1.496012040631648E-04   1.511047211599924E-04   1.526233488548569E-04
   1.541572390117936E-04   1.557065450210962E-04   1.572714218146567E-04
   1.588520258814586E-04   1.604485152832258E-04   1.620610496702289E-04
   1.636897902972503E-04   1.653349000397102E-04   1.669965434099535E-04
   1.686748865737022E-04   1.703700973666709E-04   1.720823453113519E-04
   1.738118016339665E-04   1.755586392815881E-04   1.773230329394372E-04
   1.791051590483501E-04   1.809051958224225E-04   1.827233232668321E-04
   1.845597231958381E-04   1.864145792509641E-04   1.882880769193611E-04
   1.901804035523574E-04   1.920917483841930E-04   1.940223025509443E-04
   1.959722591096362E-04   1.979418130575501E-04   1.999311613517216E-04
   2.019405029286381E-04   2.039700387241318E-04   2.060199716934735E-04
   2.080905068316684E-04   2.101818511939559E-04   2.122942139165150E-04
   2.144278062373780E-04   2.165828415175555E-04   2.187595352623707E-04
   2.209581051430125E-04   2.231787710183009E-04   2.254217549566740E-04
   2.276872812583950E-04   2.299755764779819E-04   2.322868694468635E-04
   2.346213912962629E-04   2.369793754803103E-04   2.393610577993892E-04
   2.417666764237162E-04   2.441964719171585E-04   2.466506872612902E-04
   2.491295678796912E-04   2.516333616624887E-04   2.541623189911477E-04
   2.567166927635083E-04   2.592967384190766E-04   2.619027139645681E-04
   2.645348799997090E-04   2.671934997432964E-04   2.698788390595201E-04
   2.725911664845497E-04   2.753307532533876E-04   2.780978733269942E-04
   2.808928034196823E-04   2.837158230267904E-04   2.865672144526319E-04
   2.894472628387253E-04   2.923562561923096E-04   2.952944854151443E-04
   2.982622443325999E-04   3.012598297230417E-04   3.042875413475062E-04
   3.073456819796793E-04   3.104345574361725E-04   3.135544766071058E-04
   3.167057514869962E-04   3.198886972059575E-04   3.231036320612142E-04
   3.263508775489309E-04   3.296307583963627E-04   3.329436025943271E-04
   3.362897414300049E-04   3.396695095200680E-04   3.430832448441420E-04
   3.465312887786045E-04   3.500139861307214E-04   3.535316851731308E-04
   3.570847376786682E-04   3.606734989555453E-04   3.642983278828801E-04
   3.679595869465860E-04   3.716576422756205E-04   3.753928636785987E-04
   3.791656246807729E-04   3.829763025613875E-04   3.868252783914063E-04
   3.907129370716200E-04   3.946396673711357E-04   3.986058619662560E-04
   4.026119174797457E-04   4.066582345204947E-04   4.107452177235784E-04
   4.148732757907232E-04   4.190428215311760E-04   4.232542719029858E-04
   4.275080480546987E-04   4.318045753674748E-04   4.361442834976261E-04
   4.405276064195823E-04   4.449549824692876E-04   4.494268543880369E-04
   4.539436693667487E-04   4.585058790906848E-04   4.631139397846198E-04
   4.677683122584625E-04   4.724694619533392E-04   4.772178589881372E-04
   4.820139782065172E-04   4.868582992243972E-04   4.917513064779162E-04
   4.966934892718770E-04   5.016853418286782E-04   5.067273633377343E-04
   5.118200580053983E-04   5.169639351053811E-04   5.221595090296795E-04
   5.274072993400148E-04   5.327078308197916E-04   5.380616335265752E-04
   5.434692428450980E-04   5.489311995407975E-04   5.544480498138952E-04
   5.600203453540158E-04   5.656486433953576E-04   5.713335067724138E-04
   5.770755039762601E-04   5.828752092114018E-04   5.887332024531957E-04
   5.946500695058481E-04   6.006264020609939E-04   6.066627977568695E-04
   6.127598602380748E-04   6.189181992159393E-04   6.251384305294917E-04
   6.314211762070476E-04   6.377670645284102E-04   6.441767300877006E-04
   6.506508138568149E-04   6.571899632495256E-04   6.637948321862214E-04
   6.704660811593007E-04   6.772043772992189E-04   6.840103944412059E-04
   6.908848131926477E-04   6.978283210011484E-04   7.048416122232742E-04
   7.119253881939924E-04   7.190803572968031E-04   7.263072350345797E-04
   7.336067441011172E-04   7.409796144534058E-04   7.484265833846247E-04
   7.559483955978731E-04   7.635458032806410E-04   7.712195661800267E-04
   7.789704516787153E-04   7.867992348717161E-04   7.947066986438730E-04
   8.026936337481513E-04   8.107608388847181E-04   8.189091207808097E-04
   8.271392942714065E-04   8.354521823807148E-04   8.438486164044736E-04
   8.523294359930824E-04   8.608954892355682E-04   8.695476327443922E-04
   8.782867317411158E-04   8.871136601429217E-04   8.960293006500066E-04
   9.050345448338492E-04   9.141302932263732E-04   9.233174554099976E-04
   9.325969501085976E-04   9.419697052793744E-04   9.514366582056564E-04
   9.609987555906255E-04   9.706569536519886E-04   9.804122182176015E-04
   9.902655248220480E-04   1.000217858804201E-03   1.010270215405752E-03
   1.020423599870738E-03   1.030679027546067E-03   1.041037523983053E-03
   1.051500125039971E-03   1.062067876985647E-03   1.072741836604080E-03
   1.083523071300128E-03   1.094412659206245E-03   1.105411689290298E-03
   1.116521261464457E-03   1.127742486695201E-03   1.139076487114403E-03
   1.150524396131550E-03   1.162087358547084E-03   1.173766530666881E-03
   1.185563080417887E-03   1.197478187464909E-03   1.209513043328578E-03
   1.221668851504510E-03   1.233946827583654E-03   1.246348199373849E-03
   1.258874207022609E-03   1.271526103141135E-03   1.284305152929584E-03
   1.297212634303585E-03   1.310249838022030E-03   1.323418067816156E-03
   1.336718640519914E-03   1.350152886201661E-03   1.363722148297161E-03
   1.377427783743927E-03   1.391271163116929E-03   1.405253670765638E-03
   1.419376704952474E-03   1.433641677992623E-03   1.448050016395275E-03
   1.462603161006280E-03   1.477302567152226E-03   1.492149704785976E-03
   1.507146058633667E-03   1.522293128343180E-03   1.537592428634111E-03
   1.553045489449235E-03   1.568653856107513E-03   1.584419089458618E-03
   1.600342766039022E-03   1.616426478229655E-03   1.632671834415136E-03
   1.649080459144623E-03   1.665653993294263E-03   1.682394094231283E-03
   1.699302435979725E-03   1.716380709387854E-03   1.733630622297245E-03
   1.751053899713563E-03   1.768652283979068E-03   1.786427534946853E-03
   1.804381430156827E-03   1.822515765013474E-03   1.840832352965390E-03
   1.859333025686634E-03   1.878019633259896E-03   1.896894044361507E-03
   1.915958146448303E-03   1.935213845946381E-03   1.954663068441738E-03
   1.974307758872831E-03   1.994149881725072E-03   2.014191421227282E-03
   2.034434381550114E-03   2.054880787006468E-03   2.075532682253931E-03
   2.096392132499235E-03   2.117461223704787E-03   2.138742062797266E-03
   2.160236777878318E-03   2.181947518437360E-03   2.203876455566541E-03
   2.226025782177848E-03   2.248397713222403E-03   2.270994485911949E-03
   2.293818359942588E-03   2.316871617720743E-03   2.340156564591405E-03
   2.363675529068660E-03   2.387430863068559E-03   2.411424942144297E-03
   2.435660165723779E-03   2.460138957349555E-03   2.484863764921189E-03
   2.509837060940041E-03   2.535061342756528E-03   2.560539132819846E-03
   2.586272978930236E-03   2.612265454493752E-03   2.638519158779617E-03
   2.665036717180130E-03   2.691820781473232E-03   2.718874030087674E-03
   2.746199168370860E-03   2.773798928859392E-03   2.801676071552315E-03
   2.829833384187130E-03   2.858273682518567E-03   2.886999810600161E-03
   2.916014641068654E-03   2.945321075431274E-03   2.974922044355878E-03
   3.004820507964032E-03   3.035019456127005E-03   3.065521908764781E-03
   3.096330916148044E-03   3.127449559203209E-03   3.158880949820509E-03
   3.190628231165200E-03   3.222694577991873E-03   3.255083196961936E-03
   3.287797326964271E-03   3.320840239439142E-03   3.354215238705333E-03
   3.387925662290586E-03   3.421974881265347E-03   3.456366300579889E-03
   3.491103359404804E-03   3.526189531474922E-03   3.561628325436692E-03
   3.597423285199036E-03   3.633577990287762E-03   3.670096056203509E-03
   3.706981134783303E-03   3.744236914565733E-03   3.781867121159827E-03
   3.819875517617605E-03   3.858265904810387E-03   3.897042121808880E-03
   3.936208046267099E-03   3.975767594810129E-03   4.015724723425794E-03
   4.056083427860247E-03   4.096847744017567E-03   4.138021748363340E-03
   4.179609558332315E-03   4.221615332740140E-03   4.264043272199263E-03
   4.306897619538987E-03   4.350182660229763E-03   4.393902722811723E-03
   4.438062179327560E-03   4.482665445759728E-03   4.527716982472039E-03
   4.573221294655712E-03   4.619182932779875E-03   4.665606493046650E-03
   4.712496617850747E-03   4.759857996243727E-03   4.807695364402889E-03
   4.856013506104917E-03   4.904817253204247E-03   4.954111486116263E-03
   5.003901134305326E-03   5.054191176777753E-03   5.104986642579696E-03
   5.156292611300071E-03   5.208114213578497E-03   5.260456631618391E-03
   5.313325099705174E-03   5.366724904729718E-03   5.420661386717017E-03
   5.475139939360219E-03   5.530166010559991E-03   5.585745102969309E-03
   5.641882774543723E-03   5.698584639097177E-03   5.755856366863375E-03
   5.813703685062823E-03   5.872132378475552E-03   5.931148290019584E-03
   5.990757321335257E-03   6.050965433375377E-03   6.111778647001330E-03
   6.173203043585142E-03   6.235244765617667E-03   6.297910017322807E-03
   6.361205065277962E-03   6.425136239040660E-03   6.489709931781561E-03
   6.554932600923748E-03   6.620810768788497E-03   6.687351023247479E-03
   6.754560018381596E-03   6.822444475146371E-03   6.891011182044057E-03
   6.960266995802468E-03   7.030218842060702E-03   7.100873716061677E-03
   7.172238683351679E-03   7.244320880486895E-03   7.317127515747114E-03
   7.390665869856535E-03   7.464943296711849E-03   7.539967224117650E-03
   7.615745154529181E-03   7.692284665802641E-03   7.769593411952939E-03
   7.847679123919123E-03   7.926549610337447E-03   8.006212758322282E-03
   8.086676534254818E-03   8.167948984579705E-03   8.250038236609691E-03
   8.332952499338391E-03   8.416700064261177E-03   8.501289306204335E-03
   8.586728684162539E-03   8.673026742144789E-03   8.760192110028800E-03
   8.848233504424007E-03   8.937159729543200E-03   9.026979678083006E-03
   9.117702332113127E-03   9.209336763974578E-03   9.301892137186891E-03
   9.395377707364526E-03   9.489802823142407E-03   9.585176927110797E-03
   9.681509556759577E-03   9.778810345431979E-03   9.877089023287960E-03
   9.976355418277204E-03   1.007661945712194E-02   1.017789116630960E-02
   1.028018067309548E-02   1.038349820651552E-02   1.048785409840917E-02
   1.059325878445256E-02   1.069972280520213E-02   1.080725680714870E-02
   1.091587154378206E-02   1.102557787666639E-02   1.113638677652639E-02
   1.124830932434439E-02   1.136135671246847E-02   1.147554024573161E-02
   1.159087134258230E-02   1.170736153622635E-02   1.182502247578019E-02
   1.194386592743582E-02   1.206390377563745E-02   1.218514802426993E-02
   1.230761079785916E-02   1.243130434278457E-02   1.255624102850370E-02
   1.268243334878924E-02   1.280989392297839E-02   1.293863549723480E-02
   1.306867094582316E-02   1.320001327239669E-02   1.333267561129751E-02
   1.346667122887007E-02   1.360201352478778E-02   1.373871603339300E-02
   1.387679242505054E-02   1.401625650751462E-02   1.415712222730970E-02
   1.429940367112515E-02   1.444311506722392E-02   1.458827078686539E-02
   1.473488534574248E-02   1.488297340543324E-02   1.503254977486707E-02
   1.518362941180557E-02   1.533622742433830E-02   1.549035907239370E-02
   1.564603976926501E-02   1.580328508315168E-02   1.596211073871609E-02
   1.612253261865617E-02   1.628456676529361E-02   1.644822938217810E-02
   1.661353683570772E-02   1.678050565676556E-02   1.694915254237288E-02
   1.711949435735878E-02   1.729154813604670E-02   1.746533108395790E-02
   1.764086057953202E-02   1.781815417586483E-02   1.799722960246373E-02
   1.817810476702062E-02   1.836079775720269E-02   1.854532684246119E-02
   1.873171047585843E-02   1.891996729591306E-02   1.911011612846401E-02
   1.930217598855292E-02   1.949616608232590E-02   1.969210580895396E-02
   1.989001476257306E-02   2.008991273424348E-02   2.029181971392898E-02
   2.049575589249578E-02   2.070174166373168E-02   2.090979762638550E-02
   2.111994458622681E-02   2.133220355812675E-02   2.154659576815941E-02
   2.176314265572443E-02   2.198186587569104E-02   2.220278730056351E-02
   2.242592902266841E-02   2.265131335636396E-02   2.287896284027125E-02
   2.310890023952845E-02   2.334114854806707E-02   2.357573099091153E-02
   2.381267102650159E-02   2.405199234903825E-02   2.429371889085321E-02
   2.453787482480213E-02   2.478448456668179E-02   2.503357277767192E-02
   2.528516436680120E-02   2.553928449343820E-02   2.579595856980735E-02
   2.605521226353019E-02   2.631707150019212E-02   2.658156246593504E-02
   2.684871161007599E-02   2.711854564775189E-02   2.739109156259142E-02
   2.766637660941321E-02   2.794442831695133E-02   2.822527449060824E-02
   2.850894321523535E-02   2.879546285794152E-02   2.908486207092983E-02
   2.937716979436265E-02   2.967241525925596E-02   2.997062799040230E-02
   3.027183780932328E-02   3.057607483725181E-02   3.088336949814421E-02
   3.119375252172265E-02   3.150725494654820E-02   3.182390812312448E-02
   3.214374371703309E-02   3.246679371209994E-02   3.279309041359376E-02
   3.312266645145660E-02   3.345555478356690E-02   3.379178869903528E-02
   3.413140182153354E-02   3.447442811265682E-02   3.482090187532015E-02
   3.517085775718854E-02   3.552433075414178E-02   3.588135621377415E-02
   3.624196983892912E-02   3.660620769126973E-02   3.697410619488474E-02
   3.734570213993117E-02   3.772103268631304E-02   3.810013536739784E-02
   3.848304809376960E-02   3.886980915702005E-02   3.926045723357782E-02
   3.965503138857611E-02   4.005357107975921E-02   4.045611616142846E-02
   4.086270688842732E-02   4.127338392016739E-02   4.168818832469408E-02
   4.210716158279351E-02   4.253034559214063E-02   4.295778267148905E-02
   4.338951556490288E-02   4.382558744603134E-02   4.426604192242577E-02
   4.471092303990092E-02   4.516027528693929E-02   4.561414359914005E-02
   4.607257336371263E-02   4.653561042401552E-02   4.700330108414062E-02
   4.747569211354368E-02   4.795283075172139E-02   4.843476471293501E-02
   4.892154219098237E-02   4.941321186401691E-02   4.990982289941567E-02
   5.041142495869601E-02   5.091806820248190E-02   5.142980329551990E-02
   5.194668141174585E-02   5.246875423940194E-02   5.299607398620606E-02
   5.352869338457236E-02   5.406666569688449E-02   5.461004472082203E-02
   5.515888479474017E-02   5.571324080310367E-02   5.627316818197545E-02
   5.683872292455978E-02   5.740996158680232E-02   5.798694129304535E-02
   5.856971974174028E-02   5.915835521121765E-02   5.975290656551494E-02
   6.035343326026304E-02   6.095999534863185E-02   6.157265348733581E-02
   6.219146894269910E-02   6.281650359678306E-02   6.344781995357396E-02
   6.408548114523357E-02   6.472955093841246E-02   6.538009374062666E-02
   6.603717460669851E-02   6.670085924526233E-02   6.737121402533476E-02
   6.804830598295261E-02   6.873220282787587E-02   6.942297295035893E-02
   7.012068542798970E-02   7.082541003259737E-02   7.153721723722967E-02
   7.225617822320038E-02   7.298236488720694E-02   7.371584984852109E-02
   7.445670645625015E-02   7.520500879667229E-02   7.596083170064516E-02
   7.672425075108900E-02   7.749534229054504E-02   7.827418342880979E-02
   7.906085205064628E-02   7.985542682357194E-02   8.065798720572638E-02
   8.146861345381660E-02   8.228738663114295E-02   8.311438861570544E-02
   8.394970210839175E-02   8.479341064124721E-02   8.564559858582833E-02
   8.650635116163949E-02   8.737575444465566E-02   8.825389537592966E-02
   8.914086177028643E-02   9.003674232510453E-02   9.094162662918599E-02
   9.185560517171532E-02   9.277876935130856E-02   9.371121148515268E-02
   9.465302481823826E-02   9.560430353268344E-02   9.656514275715242E-02
   9.753563857636832E-02   9.851588804072181E-02   9.950598917597625E-02
   1.005060409930702E-01   1.015161434980190E-01   1.025363977019144E-01
   1.035669056310273E-01   1.046077703370094E-01   1.056590959071986E-01
   1.067209874750281E-01   1.077935512305395E-01   1.088768944310022E-01
   1.099711254116393E-01   1.110763535964602E-01   1.121926895092048E-01
   1.133202447843944E-01   1.144591321784964E-01   1.156094655811991E-01
   1.167713600268016E-01   1.179449317057164E-01   1.191302979760898E-01
   1.203275773755362E-01   1.215368896329935E-01   1.227583556806952E-01
   1.239920976662639E-01   1.252382389649263E-01   1.264969041918507E-01
   1.277682192146088E-01   1.290523111657622E-01   1.303493084555764E-01
   1.316593407848606E-01   1.329825391579399E-01   1.343190358957541E-01
   1.356689646490907E-01   1.370324604119502E-01   1.384096595350449E-01
   1.398006997394348E-01   1.412057201303000E-01   1.426248612108498E-01
   1.440582648963750E-01   1.455060745284389E-01   1.469684348892111E-01
   1.484454922159464E-01   1.499373942156081E-01   1.514442900796397E-01
   1.529663304988836E-01   1.545036676786494E-01   1.560564553539366E-01
   1.576248488048066E-01   1.592090048719116E-01   1.608090819721784E-01
   1.624252401146504E-01   1.640576409164888E-01   1.657064476191339E-01
   1.673718251046304E-01   1.690539399121140E-01   1.707529602544676E-01
   1.724690560351413E-01   1.742023988651432E-01   1.759531620802007E-01
   1.777215207580944E-01   1.795076517361657E-01   1.813117336290010E-01
   1.831339468462926E-01   1.849744736108810E-01   1.868334979769763E-01
   1.887112058485645E-01   1.906077849979974E-01   1.925234250847704E-01
   1.944583176744886E-01   1.964126562580238E-01   1.983866362708621E-01
   2.003804551126503E-01   2.023943121669340E-01   2.044284088210969E-01
   2.064829484864995E-01   2.085581366188205E-01   2.106541807386023E-01
   2.127712904520038E-01   2.149096774717608E-01   2.170695556383566E-01
   2.192511409414082E-01   2.214546515412638E-01   2.236803077908196E-01
   2.259283322575555E-01   2.281989497457913E-01   2.304923873191681E-01
   2.328088743233549E-01   2.351486424089816E-01   2.375119255548071E-01
   2.398989600911154E-01   2.423099847233492E-01   2.447452405559810E-01
   2.472049711166235E-01   2.496894223803824E-01   2.521988427944551E-01
   2.547334833029731E-01   2.572935973721001E-01   2.598794410153763E-01
   2.624912728193210E-01   2.651293539692910E-01   2.677939482755999E-01
   2.704853221998987E-01   2.732037448818226E-01   2.759494881659058E-01
   2.787228266287637E-01   2.815240376065544E-01   2.843534012227098E-01
   2.872112004159495E-01   2.900977209685742E-01   2.930132515350446E-01
   2.959580836708471E-01   2.989325118616498E-01   3.019368335527494E-01
   3.049713491788191E-01   3.080363621939503E-01   3.111321791019988E-01