<UPF version="2.0.1">
  <PP_INFO>
    Generated using "atomic" code by A. Dal Corso  v.6.8
    Author: D.C.
    Generation date: 25Oct2024
    Pseudopotential type: USPP
    Element: Gd
    Functional: PBE
    Suggested minimum cutoff for wavefunctions:  45. Ry
    Suggested minimum cutoff for charge density: 180. Ry
    The Pseudo was generated with a Scalar-Relativistic Calculation
    L component and cutoff radius for Local Potential:  2   2.1000
    Pseudopotential contains additional information for GIPAW reconstruction.
    Valence configuration: 
    nl pn  l   occ       Rcut    Rcut US       E pseu
    4F  4  3  7.00      1.300      1.900    -0.639220
    5F  5  3  0.00      1.300      1.900     0.000363
    5P  2  1  6.00      1.300      1.800    -2.003893
    6P  3  1  0.00      1.300      1.800    -0.097972
    5S  1  0  2.00      1.300      1.600    -3.655859
    6S  2  0  2.00      1.300      1.600    -0.303245
    5D  3  2  1.00      3.913      4.304    -0.186159
    Generation configuration:
    4F  4  3  7.00      1.300      1.900    -0.639206
    5F  5  3  0.00      1.300      1.900     1.500000
    5P  2  1  6.00      1.300      1.800    -2.003885
    6P  3  1  0.00      1.300      1.800     0.500000
    5S  1  0  2.00      1.300      1.600    -3.655853
    6S  2  0  2.00      1.300      1.600    -0.303246
    5D  3  2  1.00      2.100      2.100    -0.186159
    Pseudization used: troullier-martins
    <PP_INPUTFILE>
@input
title = 'Gd'
prefix = 'gd'
verbosity = 'high'
zed = 64
dft = 'pbe'
rel = 1
iswitch = 3
beta = 0.2
xmin = -8.0, dx = 0.01
nld = 4, rlderiv = 3.4, eminld  = -5.0, emaxld  = 5.0, deld = 0.002
/
16
1S  1  0   2.0
2S  2  0   2.0
2P  2  1   6.0
3S  3  0   2.0
3P  3  1   6.0
3D  3  2  10.0
4S  4  0   2.0
4P  4  1   6.0
4D  4  2  10.0
5S  5  0   2.0
5P  5  1   6.0
5D  5  2   1.0
4F  4  3   7.0
6S  6  0   2.0
6P  6  1   0.0
5F  5  3   0.0
@inputp
pseudotype = 3
lloc = 2
rcloc = 2.1
tm = .true.
nlcc = .true.
new_core_ps = .true.
rcore = 1.3
file_core = 'gd.core'
file_pseudopw = 'Gd.pbe-rrkjus-semi-gipaw-dc.UPF'
lgipaw_reconstruction = .true.
!upf_v1_format = .true.
author = 'D.C.'
/
7
4F  4  3  7.0  0.00  1.30  1.90
5F  5  3  0.0  1.50  1.30  1.90
5P  2  1  6.0  0.00  1.30  1.80
6P  3  1  0.0  0.50  1.30  1.80
5S  1  0  2.0  0.00  1.30  1.60
6S  2  0  2.0  0.00  1.30  1.60
5D  3  2  1.0  0.00  2.10  2.10
@test
ecutmin = 20
ecutmax = 60
decut   = 5
/
7
4F  4  3  7.0  0.00  1.30  1.90
5F  5  3  0.0  0.25  1.30  1.90
5P  2  1  6.0  0.00  1.30  1.80
6P  3  1  0.0  0.50  1.30  1.80
5S  1  0  2.0  0.00  1.30  1.60
6S  2  0  2.0  0.00  1.30  1.60
5D  3  2  1.0  0.00  2.10  2.10
    </PP_INPUTFILE>
  </PP_INFO>
    <!-- END OF HUMAN READABLE SECTION -->
  <PP_HEADER generated="Generated using 'atomic' code by A. Dal Corso  v.6.8" author="D.C." date="25Oct2024" comment="" element="Gd" pseudo_type="USPP" relativistic="scalar" is_ultrasoft="true" is_paw="false" is_coulomb="false" has_so="false" has_wfc="false" has_gipaw="true" paw_as_gipaw="false" core_correction="true" functional="PBE" z_valence="18.0000000000000" total_psenergy="-230.667202956751" wfc_cutoff="44.8999315411519" rho_cutoff="179.599726164608" l_max="3" l_max_rho="6" l_local="2" mesh_size="1677" number_of_wfc="7" number_of_proj="6"/>
  <PP_MESH mesh="1677" dx="1.000000000000000E-002" xmin="-8.00000000000000" rmax="100.000000000000" zmesh="64.0000000000000">
    <PP_R>
   5.241603560976748E-06   5.294282552553533E-06   5.347490976797490E-06
   5.401234154595390E-06   5.455517460309788E-06   5.510346322316496E-06
   5.565726223547407E-06   5.621662702038798E-06   5.678161351485122E-06
   5.735227821798412E-06   5.792867819673253E-06   5.851087109157474E-06
   5.909891512228527E-06   5.969286909375730E-06   6.029279240188291E-06
   6.089874503949294E-06   6.151078760235598E-06   6.212898129523841E-06
   6.275338793802470E-06   6.338406997189951E-06   6.402109046559169E-06
   6.466451312168151E-06   6.531440228297077E-06   6.597082293891724E-06
   6.663384073213341E-06   6.730352196495118E-06   6.797993360605189E-06
   6.866314329716335E-06   6.935321935982407E-06   7.005023080221524E-06
   7.075424732606202E-06   7.146533933360348E-06   7.218357793463301E-06
   7.290903495360913E-06   7.364178293683834E-06   7.438189515972958E-06
   7.512944563412199E-06   7.588450911568582E-06   7.664716111139852E-06
   7.741747788709521E-06   7.819553647509544E-06   7.898141468190630E-06
   7.977519109600341E-06   8.057694509568966E-06   8.138675685703322E-06
   8.220470736188496E-06   8.303087840597702E-06   8.386535260710232E-06
   8.470821341337641E-06   8.555954511158220E-06   8.641943283559900E-06
   8.728796257491579E-06   8.816522118323028E-06   8.905129638713444E-06
   8.994627679488689E-06   9.085025190527431E-06   9.176331211656114E-06
   9.268554873552923E-06   9.361705398660908E-06   9.455792102110206E-06
   9.550824392649567E-06   9.646811773587250E-06   9.743763843741320E-06
   9.841690298399594E-06   9.940600930289143E-06   1.004050563055559E-05
   1.014141438975220E-05   1.024333729883900E-05   1.034628455019182E-05
   1.045026643862160E-05   1.055529336240382E-05   1.066137582431838E-05
   1.076852443269989E-05   1.087674990249848E-05   1.098606305635129E-05
   1.109647482566483E-05   1.120799625170802E-05   1.132063848671642E-05
   1.143441279500739E-05   1.154933055410656E-05   1.166540325588561E-05
   1.178264250771147E-05   1.190106003360699E-05   1.202066767542345E-05
   1.214147739402471E-05   1.226350127048331E-05   1.238675150728858E-05
   1.251124042956690E-05   1.263698048631424E-05   1.276398425164107E-05
   1.289226442602976E-05   1.302183383760463E-05   1.315270544341483E-05
   1.328489233072999E-05   1.341840771834902E-05   1.355326495792191E-05
   1.368947753528503E-05   1.382705907180960E-05   1.396602332576396E-05
   1.410638419368927E-05   1.424815571178932E-05   1.439135205733404E-05
   1.453598755007733E-05   1.468207665368900E-05   1.482963397720114E-05
   1.497867427646906E-05   1.512921245564692E-05   1.528126356867804E-05
   1.543484282080046E-05   1.558996557006738E-05   1.574664732888298E-05
   1.590490376555373E-05   1.606475070585515E-05   1.622620413461450E-05
   1.638928019730921E-05   1.655399520168141E-05   1.672036561936882E-05
   1.688840808755185E-05   1.705813941061736E-05   1.722957656183909E-05
   1.740273668507505E-05   1.757763709648183E-05   1.775429528624634E-05
   1.793272892033479E-05   1.811295584225924E-05   1.829499407486210E-05
   1.847886182211832E-05   1.866457747095586E-05   1.885215959309438E-05
   1.904162694690238E-05   1.923299847927314E-05   1.942629332751940E-05
   1.962153082128702E-05   1.981873048448811E-05   2.001791203725330E-05
   2.021909539790388E-05   2.042230068494356E-05   2.062754821907035E-05
   2.083485852520874E-05   2.104425233456210E-05   2.125575058668584E-05
   2.146937443158143E-05   2.168514523181139E-05   2.190308456463554E-05
   2.212321422416878E-05   2.234555622356054E-05   2.257013279719599E-05
   2.279696640291966E-05   2.302607972428119E-05   2.325749567280358E-05
   2.349123739027457E-05   2.372732825106068E-05   2.396579186444473E-05
   2.420665207698682E-05   2.444993297490885E-05   2.469565888650339E-05
   2.494385438456639E-05   2.519454428885443E-05   2.544775366856689E-05
   2.570350784485273E-05   2.596183239334272E-05   2.622275314670699E-05
   2.648629619723829E-05   2.675248789946129E-05   2.702135487276808E-05
   2.729292400407999E-05   2.756722245053649E-05   2.784427764221081E-05
   2.812411728485299E-05   2.840676936266049E-05   2.869226214107667E-05
   2.898062416961724E-05   2.927188428472536E-05   2.956607161265531E-05
   2.986321557238496E-05   3.016334587855796E-05   3.046649254445501E-05
   3.077268588499533E-05   3.108195651976818E-05   3.139433537609469E-05
   3.170985369212084E-05   3.202854301994121E-05   3.235043522875407E-05
   3.267556250804860E-05   3.300395737082366E-05   3.333565265683919E-05
   3.367068153590023E-05   3.400907751117384E-05   3.435087442253955E-05
   3.469610644997337E-05   3.504480811696568E-05   3.539701429397378E-05
   3.575276020190890E-05   3.611208141565827E-05   3.647501386764270E-05
   3.684159385140989E-05   3.721185802526361E-05   3.758584341592984E-05
   3.796358742225934E-05   3.834512781896745E-05   3.873050276041185E-05
   3.911975078440781E-05   3.951291081608212E-05   3.991002217176560E-05
   4.031112456292469E-05   4.071625810013279E-05   4.112546329708126E-05
   4.153878107463074E-05   4.195625276490345E-05   4.237792011541630E-05
   4.280382529325576E-05   4.323401088929450E-05   4.366851992245068E-05
   4.410739584398963E-05   4.455068254186929E-05   4.499842434512880E-05
   4.545066602832163E-05   4.590745281599297E-05   4.636883038720225E-05
   4.683484488009107E-05   4.730554289649711E-05   4.778097150661418E-05
   4.826117825369956E-05   4.874621115882804E-05   4.923611872569440E-05
   4.973094994546355E-05   5.023075430166984E-05   5.073558177516541E-05
   5.124548284911833E-05   5.176050851406082E-05   5.228071027298867E-05
   5.280614014651118E-05   5.333685067805360E-05   5.387289493911135E-05
   5.441432653455724E-05   5.496119960800201E-05   5.551356884720873E-05
   5.607148948956168E-05   5.663501732758993E-05   5.720420871454700E-05
   5.777912057004581E-05   5.835981038575105E-05   5.894633623112821E-05
   5.953875675925058E-05   6.013713121266468E-05   6.074151942931454E-05
   6.135198184852538E-05   6.196857951704794E-05   6.259137409516282E-05
   6.322042786284686E-05   6.385580372600104E-05   6.449756522274119E-05
   6.514577652975174E-05   6.580050246870368E-05   6.646180851273633E-05
   6.712976079300536E-05   6.780442610529530E-05   6.848587191669963E-05
   6.917416637236737E-05   6.986937830231769E-05   7.057157722832292E-05
   7.128083337086081E-05   7.199721765613675E-05   7.272080172317612E-05
   7.345165793098875E-05   7.418985936580434E-05   7.493547984838158E-05
   7.568859394139011E-05   7.644927695686681E-05   7.721760496374715E-05
   7.799365479547214E-05   7.877750405767155E-05   7.956923113592493E-05
   8.036891520359974E-05   8.117663622976924E-05   8.199247498720913E-05
   8.281651306047503E-05   8.364883285406098E-05   8.448951760064000E-05
   8.533865136938717E-05   8.619631907438714E-05   8.706260648312497E-05
   8.793760022506352E-05   8.882138780030617E-05   8.971405758834691E-05
   9.061569885690846E-05   9.152640177086902E-05   9.244625740127902E-05
   9.337535773446786E-05   9.431379568124328E-05   9.526166508618184E-05
   9.621906073701402E-05   9.718607837410270E-05   9.816281470001746E-05
   9.914936738920484E-05   1.001458350977560E-04   1.011523174732720E-04
   1.021689151648292E-04   1.031957298330439E-04   1.042328641602387E-04
   1.052804218607104E-04   1.063385076911022E-04   1.074072274608789E-04
   1.084866880429080E-04   1.095769973841473E-04   1.106782645164395E-04
   1.117905995674154E-04   1.129141137715072E-04   1.140489194810716E-04
   1.151951301776252E-04   1.163528604831928E-04   1.175222261717697E-04
   1.187033441808995E-04   1.198963326233670E-04   1.211013107990109E-04
   1.223183992066527E-04   1.235477195561475E-04   1.247893947805547E-04
   1.260435490484315E-04   1.273103077762497E-04   1.285897976409380E-04
   1.298821465925487E-04   1.311874838670543E-04   1.325059399992698E-04
   1.338376468359072E-04   1.351827375487599E-04   1.365413466480202E-04
   1.379136099957300E-04   1.392996648193680E-04   1.406996497255712E-04
   1.421137047139973E-04   1.435419711913230E-04   1.449845919853866E-04
   1.464417113594697E-04   1.479134750267238E-04   1.494000301647423E-04
   1.509015254302776E-04   1.524181109741079E-04   1.539499384560509E-04
   1.554971610601317E-04   1.570599335098998E-04   1.586384120839025E-04
   1.602327546313128E-04   1.618431205877140E-04   1.634696709910437E-04
   1.651125684976977E-04   1.667719773987957E-04   1.684480636366108E-04
   1.701409948211633E-04   1.718509402469825E-04   1.735780709100360E-04
   1.753225595248294E-04   1.770845805416779E-04   1.788643101641517E-04
   1.806619263666959E-04   1.824776089124290E-04   1.843115393711183E-04
   1.861639011373382E-04   1.880348794488090E-04   1.899246614049209E-04
   1.918334359854443E-04   1.937613940694281E-04   1.957087284542873E-04
   1.976756338750829E-04   1.996623070239965E-04   2.016689465699980E-04
   2.036957531787146E-04   2.057429295324961E-04   2.078106803506839E-04
   2.098992124100828E-04   2.120087345656396E-04   2.141394577713273E-04
   2.162915951012424E-04   2.184653617709111E-04   2.206609751588119E-04
   2.228786548281134E-04   2.251186225486305E-04   2.273811023190019E-04
   2.296663203890904E-04   2.319745052826067E-04   2.343058878199643E-04
   2.366607011413592E-04   2.390391807300862E-04   2.414415644360862E-04
   2.438680924997317E-04   2.463190075758513E-04   2.487945547579951E-04
   2.512949816029443E-04   2.538205381554667E-04   2.563714769733228E-04
   2.589480531525196E-04   2.615505243528224E-04   2.641791508235200E-04
   2.668341954294499E-04   2.695159236772854E-04   2.722246037420862E-04
   2.749605064941155E-04   2.777239055259290E-04   2.805150771797323E-04
   2.833343005750168E-04   2.861818576364715E-04   2.890580331221757E-04
   2.919631146520747E-04   2.948973927367421E-04   2.978611608064318E-04
   3.008547152404206E-04   3.038783553966469E-04   3.069323836416453E-04
   3.100171053807857E-04   3.131328290888127E-04   3.162798663406935E-04
   3.194585318427760E-04   3.226691434642588E-04   3.259120222689800E-04
   3.291874925475222E-04   3.324958818496434E-04   3.358375210170300E-04
   3.392127442163839E-04   3.426218889728377E-04   3.460652962037082E-04
   3.495433102525875E-04   3.530562789237791E-04   3.566045535170777E-04
   3.601884888628997E-04   3.638084433577658E-04   3.674647790001423E-04
   3.711578614266406E-04   3.748880599485810E-04   3.786557475889238E-04
   3.824613011195730E-04   3.863051010990529E-04   3.901875319105651E-04
   3.941089818004254E-04   3.980698429168909E-04   4.020705113493741E-04
   4.061113871680525E-04   4.101928744638746E-04   4.143153813889716E-04
   4.184793201974715E-04   4.226851072867250E-04   4.269331632389464E-04
   4.312239128632701E-04   4.355577852382346E-04   4.399352137546890E-04
   4.443566361591331E-04   4.488224945974911E-04   4.533332356593290E-04
   4.578893104225116E-04   4.624911744983127E-04   4.671392880769738E-04
   4.718341159737266E-04   4.765761276752732E-04   4.813657973867358E-04
   4.862036040790761E-04   4.910900315369955E-04   4.960255684073115E-04
   5.010107082478247E-04   5.060459495766727E-04   5.111317959221847E-04
   5.162687558732333E-04   5.214573431300953E-04   5.266980765558190E-04
   5.319914802281148E-04   5.373380834917611E-04   5.427384210115398E-04
   5.481930328257037E-04   5.537024643999788E-04   5.592672666821140E-04
   5.648879961569752E-04   5.705652149021940E-04   5.762994906443752E-04
   5.820913968158720E-04   5.879415126121281E-04   5.938504230495990E-04
   5.998187190242512E-04   6.058469973706564E-04   6.119358609216729E-04
   6.180859185687304E-04   6.242977853227174E-04   6.305720823754867E-04
   6.369094371619721E-04   6.433104834229336E-04   6.497758612683310E-04
   6.563062172413367E-04   6.629022043829904E-04   6.695644822975031E-04
   6.762937172182174E-04   6.830905820742335E-04   6.899557565577009E-04
   6.968899271917893E-04   7.038937873993410E-04   7.109680375722120E-04
   7.181133851413157E-04   7.253305446473633E-04   7.326202378123204E-04
   7.399831936115770E-04   7.474201483468495E-04   7.549318457198089E-04
   7.625190369064529E-04   7.701824806322214E-04   7.779229432478741E-04
   7.857411988061229E-04   7.936380291390394E-04   8.016142239362365E-04
   8.096705808238411E-04   8.178079054442560E-04   8.260270115367248E-04
   8.343287210187048E-04   8.427138640680628E-04   8.511832792060916E-04
   8.597378133813634E-04   8.683783220544232E-04   8.771056692833395E-04
   8.859207278101079E-04   8.948243791479270E-04   9.038175136693513E-04
   9.129010306953254E-04   9.220758385851225E-04   9.313428548271772E-04
   9.407030061308370E-04   9.501572285190308E-04   9.597064674218770E-04
   9.693516777712233E-04   9.790938240961434E-04   9.889338806193864E-04
   9.988728313548058E-04   1.008911670205757E-03   1.019051401064493E-03
   1.029293037912547E-03   1.039637604922138E-03   1.050086136558590E-03
   1.060639677683773E-03   1.071299283660593E-03   1.082066020458531E-03
   1.092940964760240E-03   1.103925204069213E-03   1.115019836818533E-03
   1.126225972480720E-03   1.137544731678681E-03   1.148977246297767E-03
   1.160524659598967E-03   1.172188126333234E-03   1.183968812856961E-03
   1.195867897248617E-03   1.207886569426559E-03   1.220026031268018E-03
   1.232287496729296E-03   1.244672191967156E-03   1.257181355461445E-03
   1.269816238138933E-03   1.282578103498419E-03   1.295468227737073E-03
   1.308487899878062E-03   1.321638421899449E-03   1.334921108864394E-03
   1.348337289052664E-03   1.361888304093458E-03   1.375575509099572E-03
   1.389400272802912E-03   1.403363977691369E-03   1.417468020147071E-03
   1.431713810586014E-03   1.446102773599114E-03   1.460636348094664E-03
   1.475315987442224E-03   1.490143159617963E-03   1.505119347351454E-03
   1.520246048273949E-03   1.535524775068148E-03   1.550957055619464E-03
   1.566544433168809E-03   1.582288466466928E-03   1.598190729930272E-03
   1.614252813798441E-03   1.630476324293204E-03   1.646862883779130E-03
   1.663414130925825E-03   1.680131720871797E-03   1.697017325389969E-03
   1.714072633054866E-03   1.731299349411467E-03   1.748699197145765E-03
   1.766273916257030E-03   1.784025264231820E-03   1.801955016219727E-03
   1.820064965210891E-03   1.838356922215301E-03   1.856832716443901E-03
   1.875494195491511E-03   1.894343225521588E-03   1.913381691452843E-03
   1.932611497147732E-03   1.952034565602850E-03   1.971652839141230E-03
   1.991468279606575E-03   2.011482868559441E-03   2.031698607475405E-03
   2.052117517945204E-03   2.072741641876903E-03   2.093573041700078E-03
   2.114613800572073E-03   2.135866022586310E-03   2.157331832982701E-03
   2.179013378360171E-03   2.200912826891328E-03   2.223032368539274E-03
   2.245374215276609E-03   2.267940601306621E-03   2.290733783286721E-03
   2.313756040554101E-03   2.337009675353674E-03   2.360497013068295E-03
   2.384220402451311E-03   2.408182215861428E-03   2.432384849499959E-03
   2.456830723650432E-03   2.481522282920636E-03   2.506461996487074E-03
   2.531652358341886E-03   2.557095887542252E-03   2.582795128462290E-03
   2.608752651047511E-03   2.634971051071804E-03   2.661452950397024E-03
   2.688200997235165E-03   2.715217866413205E-03   2.742506259640576E-03
   2.770068905779342E-03   2.797908561117082E-03   2.826028009642533E-03
   2.854430063323978E-03   2.883117562390459E-03   2.912093375615782E-03
   2.941360400605419E-03   2.970921564086258E-03   3.000779822199285E-03
   3.030938160795187E-03   3.061399595732959E-03   3.092167173181479E-03
   3.123243969924134E-03   3.154633093666492E-03   3.186337683347086E-03
   3.218360909451304E-03   3.250705974328444E-03   3.283376112511950E-03
   3.316374591042861E-03   3.349704709796530E-03   3.383369801812610E-03
   3.417373233628357E-03   3.451718405615285E-03   3.486408752319216E-03
   3.521447742803729E-03   3.556838880997076E-03   3.592585706042561E-03
   3.628691792652482E-03   3.665160751465588E-03   3.701996229408154E-03
   3.739201910058666E-03   3.776781514016195E-03   3.814738799272454E-03
   3.853077561587603E-03   3.891801634869817E-03   3.930914891558696E-03
   3.970421243012504E-03   4.010324639899313E-03   4.050629072592057E-03
   4.091338571567594E-03   4.132457207809749E-03   4.173989093216411E-03
   4.215938381010734E-03   4.258309266156448E-03   4.301105985777380E-03
   4.344332819581158E-03   4.387994090287186E-03   4.432094164058913E-03
   4.476637450940470E-03   4.521628405297665E-03   4.567071526263430E-03
   4.612971358187723E-03   4.659332491091990E-03   4.706159561128157E-03
   4.753457251042253E-03   4.801230290642677E-03   4.849483457273204E-03
   4.898221576290707E-03   4.947449521547709E-03   4.997172215879750E-03
   5.047394631597702E-03   5.098121790984992E-03   5.149358766799832E-03
   5.201110682782495E-03   5.253382714167709E-03   5.306180088202174E-03
   5.359508084667290E-03   5.413372036407149E-03   5.467777329861804E-03
   5.522729405605940E-03   5.578233758892926E-03   5.634295940204351E-03
   5.690921555805053E-03   5.748116268303786E-03   5.805885797219463E-03
   5.864235919553121E-03   5.923172470365608E-03   5.982701343361126E-03
   6.042828491476580E-03   6.103559927476895E-03   6.164901724556270E-03
   6.226860016945534E-03   6.289441000525561E-03   6.352650933446865E-03
   6.416496136755400E-03   6.480982995024710E-03   6.546117956994358E-03
   6.611907536214829E-03   6.678358311698857E-03   6.745476928579371E-03
   6.813270098773993E-03   6.881744601656237E-03   6.950907284733458E-03
   7.020765064331589E-03   7.091324926286810E-03   7.162593926644116E-03
   7.234579192362942E-03   7.307287922029834E-03   7.380727386578355E-03
   7.454904930016160E-03   7.529827970159417E-03   7.605503999374559E-03
   7.681940585327580E-03   7.759145371740772E-03   7.837126079157122E-03
   7.915890505712340E-03   7.995446527914727E-03   8.075802101432800E-03
   8.156965261890881E-03   8.238944125672637E-03   8.321746890732770E-03
   8.405381837416789E-03   8.489857329289065E-03   8.575181813969166E-03
   8.661363823976673E-03   8.748411977584407E-03   8.836334979680265E-03
   8.925141622637736E-03   9.014840787195106E-03   9.105441443343588E-03
   9.196952651224298E-03   9.289383562034291E-03   9.382743418941658E-03
   9.477041558009897E-03   9.572287409131498E-03   9.668490496970956E-03
   9.765660441917203E-03   9.863806961045718E-03   9.962939869090207E-03
   1.006306907942409E-02   1.016420460505182E-02   1.026635655961026E-02
   1.036953515837999E-02   1.047375071930687E-02   1.057901366403383E-02
   1.068533451894306E-02   1.079272391620867E-02   1.090119259485987E-02
   1.101075140185490E-02   1.112141129316578E-02   1.123318333487385E-02
   1.134607870427642E-02   1.146010869100452E-02   1.157528469815184E-02
   1.169161824341508E-02   1.180912096024571E-02   1.192780459901334E-02
   1.204768102818073E-02   1.216876223549070E-02   1.229106032916489E-02
   1.241458753911460E-02   1.253935621816373E-02   1.266537884328417E-02
   1.279266801684346E-02   1.292123646786504E-02   1.305109705330113E-02
   1.318226275931850E-02   1.331474670259705E-02   1.344856213164154E-02
   1.358372242810634E-02   1.372024110813377E-02   1.385813182370558E-02
   1.399740836400826E-02   1.413808465681187E-02   1.428017476986294E-02
   1.442369291229118E-02   1.456865343603045E-02   1.471507083725389E-02
   1.486295975782366E-02   1.501233498675505E-02   1.516321146169544E-02
   1.531560427041806E-02   1.546952865233075E-02   1.562500000000000E-02
   1.578203386069012E-02   1.594064593791805E-02   1.610085209302369E-02
   1.626266834675608E-02   1.642611088087539E-02   1.659119603977125E-02
   1.675794033209714E-02   1.692636043242123E-02   1.709647318289391E-02
   1.726829559493199E-02   1.744184485091985E-02   1.761713830592776E-02
   1.779419348944723E-02   1.797302810714419E-02   1.815366004262943E-02
   1.833610735924704E-02   1.852038830188071E-02   1.870652129877828E-02
   1.889452496339454E-02   1.908441809625264E-02   1.927621968682413E-02
   1.946994891542784E-02   1.966562515514810E-02   1.986326797377195E-02
   2.006289713574596E-02   2.026453260415268E-02   2.046819454270698E-02
   2.067390331777244E-02   2.088167950039802E-02   2.109154386837506E-02
   2.130351740831529E-02   2.151762131774933E-02   2.173387700724657E-02
   2.195230610255615E-02   2.217293044676964E-02   2.239577210250530E-02
   2.262085335411447E-02   2.284819670990977E-02   2.307782490441630E-02
   2.330976090064486E-02   2.354402789238834E-02   2.378064930654115E-02
   2.401964880544189E-02   2.426105028923961E-02   2.450487789828387E-02
   2.475115601553880E-02   2.499990926902127E-02   2.525116253426397E-02
   2.550494093680280E-02   2.576126985468950E-02   2.602017492102947E-02
   2.628168202654509E-02   2.654581732216484E-02   2.681260722163844E-02
   2.708207840417807E-02   2.735425781712659E-02   2.762917267865212E-02
   2.790685048046990E-02   2.818731899059151E-02   2.847060625610169E-02
   2.875674060596307E-02   2.904575065384912E-02   2.933766530100538E-02
   2.963251373913988E-02   2.993032545334214E-02   3.023113022503175E-02
   3.053495813493655E-02   3.084183956610074E-02   3.115180520692315E-02
   3.146488605422623E-02   3.178111341635551E-02   3.210051891631076E-02
   3.242313449490818E-02   3.274899241397446E-02   3.307812525957304E-02
   3.341056594526278E-02   3.374634771538929E-02   3.408550414840937E-02
   3.442806916024904E-02   3.477407700769483E-02   3.512356229181988E-02
   3.547655996144385E-02   3.583310531662786E-02   3.619323401220455E-02
   3.655698206134360E-02   3.692438583915302E-02   3.729548208631686E-02
   3.767030791276893E-02   3.804890080140431E-02   3.843129861182736E-02
   3.881753958413776E-02   3.920766234275465E-02   3.960170590027897E-02
   3.999970966139485E-02   4.040171342681014E-02   4.080775739723625E-02
   4.121788217740866E-02   4.163212878014716E-02   4.205053863045723E-02
   4.247315356967258E-02   4.290001585963931E-02   4.333116818694214E-02
   4.376665366717308E-02   4.420651584924316E-02   4.465079871973696E-02
   4.509954670731187E-02   4.555280468714058E-02   4.601061798539881E-02
   4.647303238379789E-02   4.694009412416300E-02   4.741184991305741E-02
   4.788834692645320E-02   4.836963281444866E-02   4.885575570603371E-02
   4.934676421390264E-02   4.984270743931539E-02   5.034363497700781E-02
   5.084959692015109E-02   5.136064386536120E-02   5.187682691775861E-02
   5.239819769607854E-02   5.292480833783339E-02   5.345671150452617E-02
   5.399396038691682E-02   5.453660871034127E-02   5.508471074008409E-02
   5.563832128680499E-02   5.619749571201998E-02   5.676228993363770E-02
   5.733276043155073E-02   5.790896425328439E-02   5.849095901970099E-02
   5.907880293076220E-02   5.967255477134899E-02   6.027227391714021E-02
   6.087802034055019E-02   6.148985461672620E-02   6.210783792960549E-02
   6.273203207803443E-02   6.336249948194807E-02   6.399930318861213E-02
   6.464250687892800E-02   6.529217487380071E-02   6.594837214057110E-02
   6.661116429951285E-02   6.728061763039390E-02   6.795679907910537E-02
   6.863977626435561E-02   6.932961748443227E-02   7.002639172403226E-02
   7.073016866116018E-02   7.144101867409620E-02   7.215901284843403E-02
   7.288422298418953E-02   7.361672160298038E-02   7.435658195527901E-02
   7.510387802773719E-02   7.585868455058491E-02   7.662107700510346E-02
   7.739113163117364E-02   7.816892543489977E-02   7.895453619631050E-02
   7.974804247713640E-02   8.054952362866694E-02   8.135905979968516E-02
   8.217673194448280E-02   8.300262183095573E-02   8.383681204878084E-02
   8.467938601767505E-02   8.553042799573758E-02   8.639002308787513E-02
   8.725825725431340E-02   8.813521731919255E-02   8.902099097924988E-02
   8.991566681258954E-02   9.081933428754042E-02   9.173208377160311E-02
   9.265400654048660E-02   9.358519478723623E-02   9.452574163145235E-02
   9.547574112860333E-02   9.643528827943054E-02   9.740447903944871E-02
   9.838341032854150E-02   9.937218004065358E-02   1.003708870535802E-01
   1.013796312388550E-01   1.023985134717368E-01   1.034276356412981E-01
   1.044671006606136E-01   1.055170124770514E-01   1.065774760826680E-01
   1.076485975247077E-01   1.087304839162073E-01   1.098232434467078E-01
   1.109269853930725E-01   1.120418201304159E-01   1.131678591431409E-01
   1.143052150360870E-01   1.154540015457914E-01   1.166143335518624E-01
   1.177863270884675E-01   1.189700993559370E-01   1.201657687324845E-01
   1.213734547860434E-01   1.225932782862258E-01   1.238253612163983E-01
   1.250698267858805E-01   1.263267994422665E-01   1.275964048838695E-01
   1.288787700722915E-01   1.301740232451203E-01   1.314822939287521E-01
   1.328037129513457E-01   1.341384124559046E-01   1.354865259134915E-01
   1.368481881365755E-01   1.382235352925137E-01   1.396127049171679E-01
   1.410158359286583E-01   1.424330686412549E-01   1.438645447794103E-01
   1.453104074919311E-01   1.467708013662935E-01   1.482458724431020E-01
   1.497357682306934E-01   1.512406377198881E-01   1.527606313988890E-01
   1.542959012683311E-01   1.558466008564801E-01   1.574128852345874E-01
   1.589949110323959E-01   1.605928364538039E-01   1.622068212926850E-01
   1.638370269488683E-01   1.654836164442777E-01   1.671467544392354E-01
   1.688266072489260E-01   1.705233428600309E-01   1.722371309475251E-01
   1.739681428916454E-01   1.757165517950288E-01   1.774825325000227E-01
   1.792662616061692E-01   1.810679174878657E-01   1.828876803122010E-01
   1.847257320569745E-01   1.865822565288923E-01   1.884574393819488E-01
   1.903514681359918E-01   1.922645321954752E-01   1.941968228683990E-01
   1.961485333854410E-01   1.981198589192795E-01   2.001109966041100E-01
   2.021221455553607E-01   2.041535068896025E-01   2.062052837446618E-01
   2.082776812999339E-01   2.103709067969013E-01   2.124851695598581E-01
   2.146206810168428E-01   2.167776547207799E-01   2.189563063708378E-01
   2.211568538339970E-01   2.233795171668375E-01   2.256245186375450E-01
   2.278920827481373E-01   2.301824362569151E-01   2.324958082011383E-01
   2.348324299199284E-01   2.371925350774048E-01   2.395763596860500E-01
   2.419841421303115E-01   2.444161231904402E-01   2.468725460665687E-01
   2.493536564030316E-01   2.518597023129303E-01   2.543909344029444E-01
   2.569476057983916E-01   2.595299721685423E-01   2.621382917521856E-01
   2.647728253834534E-01   2.674338365179043E-01   2.701215912588693E-01
   2.728363583840622E-01   2.755784093724584E-01   2.783480184314408E-01
   2.811454625242238E-01   2.839710213975479E-01   2.868249776096551E-01