<UPF version="2.0.1">
  <PP_INFO>
    Generated using "atomic" code by A. Dal Corso  v.6.8
    Author: D.C.
    Generation date: 24Oct2024
    Pseudopotential type: USPP
    Element: Ce
    Functional: PBE
    Suggested minimum cutoff for wavefunctions:  66. Ry
    Suggested minimum cutoff for charge density: 265. Ry
    The Pseudo was generated with a Scalar-Relativistic Calculation
    L component and cutoff radius for Local Potential:  2   2.1000
    Pseudopotential contains additional information for GIPAW reconstruction.
    Valence configuration: 
    nl pn  l   occ       Rcut    Rcut US       E pseu
    4F  4  3  1.00      1.300      2.000    -0.395602
    5F  5  3  0.00      1.300      2.000     0.000364
    5P  2  1  6.00      1.300      2.000    -1.707042
    6P  3  1  0.00      1.300      2.000    -0.099098
    5S  1  0  2.00      1.300      2.000    -2.983334
    6S  2  0  2.00      1.300      2.000    -0.275228
    5D  3  2  1.00      4.318      4.749    -0.224839
    Generation configuration:
    4F  4  3  1.00      1.300      2.000    -0.395539
    5F  5  3  0.00      1.300      2.000     0.500000
    5P  2  1  6.00      1.300      2.000    -1.707005
    6P  3  1  0.00      1.300      2.000     0.500000
    5S  1  0  2.00      1.300      2.000    -2.983294
    6S  2  0  2.00      1.300      2.000    -0.275225
    5D  3  2  1.00      2.100      2.100    -0.224828
    Pseudization used: troullier-martins
    <PP_INPUTFILE>
@input
title = 'Ce'
prefix = 'ce'
verbosity = 'high'
zed = 58
dft = 'pbe'
rel = 1
iswitch = 3
beta = 0.2
xmin = -8.0, dx = 0.01
nld = 4, rlderiv = 3.4, eminld  = -5.0, emaxld  = 5.0, deld = 0.002
/
16
1S  1  0   2.0
2S  2  0   2.0
2P  2  1   6.0
3S  3  0   2.0
3P  3  1   6.0
3D  3  2  10.0
4S  4  0   2.0
4P  4  1   6.0
4D  4  2  10.0
5S  5  0   2.0
5P  5  1   6.0
5D  5  2   1.0
4F  4  3   1.0
6S  6  0   2.0
6P  6  1   0.0
5F  5  3   0.0
@inputp
pseudotype = 3
lloc = 2
rcloc = 2.1
tm = .true.
nlcc = .true.
new_core_ps = .true.
rcore = 1.3
file_core = 'ce.core'
file_pseudopw = 'Ce.pbe-rrkjus-semi-gipaw-dc.UPF'
lgipaw_reconstruction = .true.
!upf_v1_format = .true.
author = 'D.C.'
/
7
4F  4  3  1.0  0.00  1.30  2.00
5F  5  3  0.0  0.50  1.30  2.00
5P  2  1  6.0  0.00  1.30  2.00
6P  3  1  0.0  0.50  1.30  2.00
5S  1  0  2.0  0.00  1.30  2.00
6S  2  0  2.0  0.00  1.30  2.00
5D  3  2  1.0  0.00  2.10  2.10
@test
ecutmin = 25
ecutmax = 60
decut   = 5
/
7
4F  4  3  1.0  0.00  1.30  2.00
5F  5  3  0.0  0.50  1.30  2.00
5P  2  1  6.0  0.00  1.30  2.00
6P  3  1  0.0  0.50  1.30  2.00
5S  1  0  2.0  0.00  1.30  2.00
6S  2  0  2.0  0.00  1.30  2.00
5D  3  2  1.0  0.00  2.10  2.10

    </PP_INPUTFILE>
  </PP_INFO>
    <!-- END OF HUMAN READABLE SECTION -->
  <PP_HEADER generated="Generated using 'atomic' code by A. Dal Corso  v.6.8" author="D.C." date="24Oct2024" comment="" element="Ce" pseudo_type="USPP" relativistic="scalar" is_ultrasoft="true" is_paw="false" is_coulomb="false" has_so="false" has_wfc="false" has_gipaw="true" paw_as_gipaw="false" core_correction="true" functional="PBE" z_valence="12.0000000000000" total_psenergy="-106.259033287274" wfc_cutoff="66.3612941050639" rho_cutoff="265.445176420256" l_max="3" l_max_rho="6" l_local="2" mesh_size="1667" number_of_wfc="7" number_of_proj="6"/>
  <PP_MESH mesh="1667" dx="1.000000000000000E-002" xmin="-8.00000000000000" rmax="100.000000000000" zmesh="58.0000000000000">
    <PP_R>
   5.783838412112273E-06   5.841966954541830E-06   5.900679698535162E-06
   5.959982515415603E-06   6.019881335514248E-06   6.080382148763030E-06
   6.141491005293690E-06   6.203214016042812E-06   6.265557353362894E-06
   6.328527251639627E-06   6.392130007915314E-06   6.456371982518592E-06
   6.521259599700444E-06   6.586799348276667E-06   6.652997782276735E-06
   6.719861521599221E-06   6.787397252673763E-06   6.855611729129756E-06
   6.924511772471691E-06   6.994104272761325E-06   7.064396189306669E-06
   7.135394551357959E-06   7.207106458810568E-06   7.279539082915006E-06
   7.352699666994031E-06   7.426595527167026E-06   7.501234053081588E-06
   7.576622708652508E-06   7.652769032808172E-06   7.729680640244441E-06
   7.807365222186154E-06   7.885830547156247E-06   7.965084461752609E-06
   8.045134891432732E-06   8.125989841306299E-06   8.207657396935679E-06
   8.290145725144495E-06   8.373463074834296E-06   8.457617777809491E-06
   8.542618249610506E-06   8.628472990355359E-06   8.715190585589660E-06
   8.802779707145203E-06   8.891249114007134E-06   8.980607653189873E-06
   9.070864260621788E-06   9.162027962038844E-06   9.254107873887152E-06
   9.347113204234639E-06   9.441053253691829E-06   9.535937416341960E-06
   9.631775180680364E-06   9.728576130563342E-06   9.826349946166558E-06
   9.925106404953036E-06   1.002485538265096E-05   1.012560685424123E-05
   1.022737089495495E-05   1.033015768128100E-05   1.043397749198368E-05
   1.053884070913056E-05   1.064475781913076E-05   1.075173941378353E-05
   1.085979619133748E-05   1.096893895756043E-05   1.107917862681996E-05
   1.119052622317485E-05   1.130299288147751E-05   1.141658984848752E-05
   1.153132848399625E-05   1.164722026196283E-05   1.176427677166166E-05
   1.188250971884126E-05   1.200193092689487E-05   1.212255233804281E-05
   1.224438601452671E-05   1.236744413981575E-05   1.249173901982501E-05
   1.261728308414608E-05   1.274408888728999E-05   1.287216910994274E-05
   1.300153656023335E-05   1.313220417501461E-05   1.326418502115691E-05
   1.339749229685485E-05   1.353213933294710E-05   1.366813959424947E-05
   1.380550668090140E-05   1.394425432972606E-05   1.408439641560394E-05
   1.422594695286042E-05   1.436892009666718E-05   1.451333014445774E-05
   1.465919153735723E-05   1.480651886162650E-05   1.495532685012073E-05
   1.510563038376279E-05   1.525744449303129E-05   1.541078435946368E-05
   1.556566531717437E-05   1.572210285438821E-05   1.588011261498928E-05
   1.603971040008533E-05   1.620091216958786E-05   1.636373404380815E-05
   1.652819230506931E-05   1.669430339933453E-05   1.686208393785163E-05
   1.703155069881430E-05   1.720272062903986E-05   1.737561084566397E-05
   1.755023863785239E-05   1.772662146852983E-05   1.790477697612635E-05
   1.808472297634119E-05   1.826647746392431E-05   1.845005861447594E-05
   1.863548478626411E-05   1.882277452206053E-05   1.901194655099486E-05
   1.920301979042764E-05   1.939601334784202E-05   1.959094652275458E-05
   1.978783880864528E-05   1.998670989490675E-05   2.018757966881335E-05
   2.039046821750987E-05   2.059539583002026E-05   2.080238299927656E-05
   2.101145042416814E-05   2.122261901161174E-05   2.143590987864210E-05
   2.165134435452361E-05   2.186894398288343E-05   2.208873052386571E-05
   2.231072595630772E-05   2.253495247993772E-05   2.276143251759487E-05
   2.299018871747171E-05   2.322124395537887E-05   2.345462133703265E-05
   2.369034420036572E-05   2.392843611786084E-05   2.416892089890818E-05
   2.441182259218625E-05   2.465716548806680E-05   2.490497412104385E-05
   2.515527327218722E-05   2.540808797162062E-05   2.566344350102464E-05
   2.592136539616504E-05   2.618187944944627E-05   2.644501171249074E-05
   2.671078849874407E-05   2.697923638610632E-05   2.725038221958995E-05
   2.752425311400429E-05   2.780087645666696E-05   2.808027991014277E-05
   2.836249141500991E-05   2.864753919265403E-05   2.893545174809048E-05
   2.922625787281467E-05   2.951998664768143E-05   2.981666744581306E-05
   3.011632993553655E-05   3.041900408335061E-05   3.072472015692227E-05
   3.103350872811364E-05   3.134540067603916E-05   3.166042719015357E-05
   3.197861977337075E-05   3.230001024521419E-05   3.262463074499896E-05
   3.295251373504548E-05   3.328369200392602E-05   3.361819866974346E-05
   3.395606718344313E-05   3.429733133215799E-05   3.464202524258725E-05
   3.499018338440921E-05   3.534184057372823E-05   3.569703197655622E-05
   3.605579311232949E-05   3.641815985746059E-05   3.678416844892600E-05
   3.715385548788991E-05   3.752725794336423E-05   3.790441315590572E-05
   3.828535884134992E-05   3.867013309458281E-05   3.905877439335038E-05
   3.945132160210637E-05   3.984781397589878E-05   4.024829116429540E-05
   4.065279321534884E-05   4.106136057960122E-05   4.147403411412947E-05
   4.189085508663099E-05   4.231186517955029E-05   4.273710649424756E-05
   4.316662155520862E-05   4.360045331429751E-05   4.403864515505170E-05
   4.448124089702035E-05   4.492828480014652E-05   4.537982156919311E-05
   4.583589635821322E-05   4.629655477506587E-05   4.676184288597661E-05
   4.723180722014428E-05   4.770649477439393E-05   4.818595301787662E-05
   4.867022989681614E-05   4.915937383930404E-05   4.965343376014212E-05
   5.015245906573421E-05   5.065649965902673E-05   5.116560594449903E-05
   5.167982883320394E-05   5.219921974785889E-05   5.272383062798806E-05
   5.325371393511675E-05   5.378892265801715E-05   5.432951031800761E-05
   5.487553097430460E-05   5.542703922942879E-05   5.598409023466528E-05
   5.654673969557885E-05   5.711504387758436E-05   5.768905961157371E-05
   5.826884429959854E-05   5.885445592061086E-05   5.944595303626080E-05
   6.004339479675281E-05   6.064684094676084E-05   6.125635183140273E-05
   6.187198840227496E-05   6.249381222354751E-05   6.312188547812083E-05
   6.375627097384366E-05   6.439703214979426E-05   6.504423308262423E-05
   6.569793849296615E-05   6.635821375190585E-05   6.702512488751949E-05
   6.769873859147628E-05   6.837912222570807E-05   6.906634382914517E-05
   6.976047212452067E-05   7.046157652524253E-05   7.116972714233510E-05
   7.188499479145020E-05   7.260745099994888E-05   7.333716801405389E-05
   7.407421880607488E-05   7.481867708170516E-05   7.557061728739269E-05
   7.633011461778467E-05   7.709724502324710E-05   7.787208521745977E-05
   7.865471268508779E-05   7.944520568953021E-05   8.024364328074606E-05
   8.105010530316001E-05   8.186467240364616E-05   8.268742603959347E-05
   8.351844848705116E-05   8.435782284895649E-05   8.520563306344513E-05
   8.606196391224512E-05   8.692690102915481E-05   8.780053090860682E-05
   8.868294091431695E-05   8.957421928802123E-05   9.047445515829974E-05
   9.138373854948969E-05   9.230216039068798E-05   9.322981252484413E-05
   9.416678771794447E-05   9.511317966828925E-05   9.606908301586203E-05
   9.703459335179423E-05   9.800980722792405E-05   9.899482216645176E-05
   9.998973666969209E-05   1.009946502299244E-04   1.020096633393424E-04
   1.030348775001025E-04   1.040703952344753E-04   1.051163200950972E-04
   1.061727566753258E-04   1.072398106196995E-04   1.083175886345020E-04
   1.094061984984329E-04   1.105057490733859E-04   1.116163503153346E-04
   1.127381132853288E-04   1.138711501606002E-04   1.150155742457806E-04
   1.161714999842322E-04   1.173390429694921E-04   1.185183199568319E-04
   1.197094488749330E-04   1.209125488376797E-04   1.221277401560711E-04
   1.233551443502515E-04   1.245948841616631E-04   1.258470835653204E-04
   1.271118677822071E-04   1.283893632917989E-04   1.296796978447114E-04
   1.309830004754753E-04   1.322994015154395E-04   1.336290326058051E-04
   1.349720267107892E-04   1.363285181309214E-04   1.376986425164742E-04
   1.390825368810278E-04   1.404803396151721E-04   1.418921905003454E-04
   1.433182307228124E-04   1.447586028877841E-04   1.462134510336770E-04
   1.476829206465183E-04   1.491671586744937E-04   1.506663135426430E-04
   1.521805351677021E-04   1.537099749730957E-04   1.552547859040786E-04
   1.568151224430314E-04   1.583911406249081E-04   1.599829980528404E-04
   1.615908539138975E-04   1.632148689950056E-04   1.648552056990259E-04
   1.665120280609960E-04   1.681855017645328E-04   1.698757941584010E-04
   1.715830742732488E-04   1.733075128385101E-04   1.750492822994787E-04
   1.768085568345521E-04   1.785855123726499E-04   1.803803266108068E-04
   1.821931790319423E-04   1.840242509228091E-04   1.858737253921223E-04
   1.877417873888698E-04   1.896286237208083E-04   1.915344230731432E-04
   1.934593760273980E-04   1.954036750804722E-04   1.973675146638916E-04
   1.993510911632506E-04   2.013546029378526E-04   2.033782503405443E-04
   2.054222357377525E-04   2.074867635297202E-04   2.095720401709472E-04
   2.116782741908351E-04   2.138056762145413E-04   2.159544589840411E-04
   2.181248373794018E-04   2.203170284402719E-04   2.225312513875840E-04
   2.247677276454782E-04   2.270266808634440E-04   2.293083369386856E-04
   2.316129240387121E-04   2.339406726241540E-04   2.362918154718094E-04
   2.386665876979226E-04   2.410652267816950E-04   2.434879725890338E-04
   2.459350673965389E-04   2.484067559157302E-04   2.509032853175194E-04
   2.534249052569273E-04   2.559718678980488E-04   2.585444279392710E-04
   2.611428426387412E-04   2.637673718400952E-04   2.664182779984399E-04
   2.690958262066005E-04   2.718002842216291E-04   2.745319224915807E-04
   2.772910141825592E-04   2.800778352060323E-04   2.828926642464251E-04
   2.857357827889871E-04   2.886074751479420E-04   2.915080284949186E-04
   2.944377328876688E-04   2.973968812990736E-04   3.003857696464399E-04
   3.034046968210930E-04   3.064539647182665E-04   3.095338782672908E-04
   3.126447454620875E-04   3.157868773919686E-04   3.189605882727455E-04
   3.221661954781514E-04   3.254040195715774E-04   3.286743843381317E-04
   3.319776168170159E-04   3.353140473342311E-04   3.386840095356086E-04
   3.420878404201774E-04   3.455258803738623E-04   3.489984732035238E-04
   3.525059661713390E-04   3.560487100295270E-04   3.596270590554262E-04
   3.632413710869211E-04   3.668920075582272E-04   3.705793335360332E-04
   3.743037177560098E-04   3.780655326596829E-04   3.818651544316780E-04
   3.857029630373379E-04   3.895793422607218E-04   3.934946797429823E-04
   3.974493670211307E-04   4.014437995671898E-04   4.054783768277432E-04
   4.095535022638793E-04   4.136695833915377E-04   4.178270318222608E-04
   4.220262633043564E-04   4.262676977644722E-04   4.305517593495891E-04
   4.348788764694349E-04   4.392494818393279E-04   4.436640125234473E-04
   4.481229099785407E-04   4.526266200980685E-04   4.571755932567962E-04
   4.617702843558306E-04   4.664111528681104E-04   4.710986628843546E-04
   4.758332831594705E-04   4.806154871594313E-04   4.854457531086223E-04
   4.903245640376641E-04   4.952524078317143E-04   5.002297772792595E-04
   5.052571701213922E-04   5.103350891015865E-04   5.154640420159711E-04
   5.206445417641121E-04   5.258771064003014E-04   5.311622591853637E-04
   5.365005286389805E-04   5.418924485925468E-04   5.473385582425507E-04
   5.528394022044962E-04   5.583955305673630E-04   5.640074989486176E-04
   5.696758685497747E-04   5.754012062125190E-04   5.811840844753865E-04
   5.870250816310231E-04   5.929247817840122E-04   5.988837749092853E-04
   6.049026569111214E-04   6.109820296827352E-04   6.171225011664706E-04
   6.233246854145933E-04   6.295892026506968E-04   6.359166793317244E-04
   6.423077482106174E-04   6.487630483995897E-04   6.552832254340402E-04
   6.618689313371048E-04   6.685208246848622E-04   6.752395706721908E-04
   6.820258411792887E-04   6.888803148388606E-04   6.958036771039853E-04
   7.027966203166588E-04   7.098598437770302E-04   7.169940538133307E-04
   7.241999638525095E-04   7.314782944915756E-04   7.388297735696586E-04
   7.462551362407917E-04   7.537551250474300E-04   7.613304899947045E-04
   7.689819886254227E-04   7.767103860958245E-04   7.845164552520961E-04
   7.924009767076587E-04   8.003647389212285E-04   8.084085382756639E-04
   8.165331791576022E-04   8.247394740379029E-04   8.330282435528926E-04
   8.414003165864308E-04   8.498565303527960E-04   8.583977304804128E-04
   8.670247710964114E-04   8.757385149120435E-04   8.845398333089506E-04
   8.934296064263074E-04   9.024087232488341E-04   9.114780816956964E-04
   9.206385887102949E-04   9.298911603509659E-04   9.392367218825837E-04
   9.486762078690906E-04   9.582105622669497E-04   9.678407385195470E-04
   9.775676996525329E-04   9.873924183701264E-04   9.973158771523878E-04
   1.007339068353463E-03   1.017462994300825E-03   1.027688667395506E-03
   1.038017110213337E-03   1.048449355607206E-03   1.058986446810347E-03
   1.069629437540660E-03   1.080379392106089E-03   1.091237385511047E-03
   1.102204503563924E-03   1.113281842985663E-03   1.124470511519441E-03
   1.135771628041431E-03   1.147186322672704E-03   1.158715736892237E-03
   1.170361023651060E-03   1.182123347487551E-03   1.194003884643896E-03
   1.206003823183713E-03   1.218124363110856E-03   1.230366716489415E-03
   1.242732107564933E-03   1.255221772886820E-03   1.267836961432018E-03
   1.280578934729895E-03   1.293448966988396E-03   1.306448345221474E-03
   1.319578369377784E-03   1.332840352470686E-03   1.346235620709537E-03
   1.359765513632327E-03   1.373431384239621E-03   1.387234599129870E-03
   1.401176538636064E-03   1.415258596963772E-03   1.429482182330563E-03
   1.443848717106827E-03   1.458359637958013E-03   1.473016395988297E-03
   1.487820456885698E-03   1.502773301068644E-03   1.517876423834010E-03
   1.533131335506661E-03   1.548539561590476E-03   1.564102642920906E-03
   1.579822135819050E-03   1.595699612247298E-03   1.611736659966525E-03
   1.627934882694867E-03   1.644295900268098E-03   1.660821348801604E-03
   1.677512880854013E-03   1.694372165592440E-03   1.711400888959409E-03
   1.728600753841444E-03   1.745973480239369E-03   1.763520805440301E-03
   1.781244484191383E-03   1.799146288875259E-03   1.817228009687316E-03
   1.835491454814704E-03   1.853938450617155E-03   1.872570841809621E-03
   1.891390491646748E-03   1.910399282109205E-03   1.929599114091878E-03
   1.948991907593964E-03   1.968579601910974E-03   1.988364155828664E-03
   2.008347547818914E-03   2.028531776237573E-03   2.048918859524304E-03
   2.069510836404426E-03   2.090309766092787E-03   2.111317728499689E-03
   2.132536824438877E-03   2.153969175837628E-03   2.175616925948943E-03
   2.197482239565876E-03   2.219567303238004E-03   2.241874325490102E-03
   2.264405537042983E-03   2.287163191036582E-03   2.310149563255258E-03
   2.333366952355392E-03   2.356817680095238E-03   2.380504091567119E-03
   2.404428555431913E-03   2.428593464155948E-03   2.453001234250233E-03
   2.477654306512121E-03   2.502555146269375E-03   2.527706243626727E-03
   2.553110113714869E-03   2.578769296941985E-03   2.604686359247774E-03
   2.630863892360067E-03   2.657304514053990E-03   2.684010868413748E-03
   2.710985626097029E-03   2.738231484602081E-03   2.765751168537461E-03
   2.793547429894495E-03   2.821623048322485E-03   2.849980831406665E-03
   2.878623614948977E-03   2.907554263251646E-03   2.936775669403612E-03
   2.966290755569837E-03   2.996102473283537E-03   3.026213803741325E-03
   3.056627758101343E-03   3.087347377784367E-03   3.118375734777967E-03
   3.149715931943700E-03   3.181371103327403E-03   3.213344414472587E-03
   3.245639062737014E-03   3.278258277612422E-03   3.311205321047487E-03
   3.344483487774000E-03   3.378096105636368E-03   3.412046535924391E-03
   3.446338173709390E-03   3.480974448183715E-03   3.515958823003680E-03
   3.551294796635921E-03   3.586985902707248E-03   3.623035710358014E-03
   3.659447824599019E-03   3.696225886672034E-03   3.733373574413914E-03
   3.770894602624394E-03   3.808792723437556E-03   3.847071726697066E-03
   3.885735440335149E-03   3.924787730755394E-03   3.964232503219377E-03
   4.004073702237221E-03   4.044315311962028E-03   4.084961356588308E-03
   4.126015900754390E-03   4.167483049948904E-03   4.209366950921329E-03
   4.251671792096665E-03   4.294401803994281E-03   4.337561259650975E-03
   4.381154475048280E-03   4.425185809544070E-03   4.469659666308476E-03
   4.514580492764242E-03   4.559952781031448E-03   4.605781068376729E-03
   4.652069937667017E-03   4.698824017827804E-03   4.746047984306075E-03
   4.793746559537829E-03   4.841924513420343E-03   4.890586663789146E-03
   4.939737876899829E-03   4.989383067914665E-03   5.039527201394130E-03
   5.090175291793350E-03   5.141332403963575E-03   5.193003653658656E-03
   5.245194208046624E-03   5.297909286226402E-03   5.351154159749742E-03
   5.404934153148367E-03   5.459254644466438E-03   5.514121065798345E-03
   5.569538903831947E-03   5.625513700397232E-03   5.682051053020504E-03
   5.739156615484132E-03   5.796836098391955E-03   5.855095269740329E-03
   5.913939955494941E-03   5.973376040173406E-03   6.033409467433714E-03
   6.094046240668624E-03   6.155292423605988E-03   6.217154140915146E-03
   6.279637578819369E-03   6.342748985714523E-03   6.406494672793890E-03
   6.470881014679306E-03   6.535914450058603E-03   6.601601482329519E-03
   6.667948680250019E-03   6.734962678595195E-03   6.802650178820711E-03
   6.871017949733003E-03   6.940072828166137E-03   7.009821719665505E-03
   7.080271599178373E-03   7.151429511751404E-03   7.223302573235154E-03
   7.295897970995674E-03   7.369222964633221E-03   7.443284886708272E-03
   7.518091143474751E-03   7.593649215620675E-03   7.669966659016230E-03
   7.747051105469339E-03   7.824910263488893E-03   7.903551919055576E-03
   7.982983936400487E-03   8.063214258791541E-03   8.144250909327839E-03
   8.226101991741969E-03   8.308775691210390E-03   8.392280275171927E-03
   8.476624094154572E-03   8.561815582610507E-03   8.647863259759582E-03
   8.734775730441202E-03   8.822561685974872E-03   8.911229905029296E-03
   9.000789254500282E-03   9.091248690397392E-03   9.182617258739608E-03
   9.274904096459905E-03   9.368118432318969E-03   9.462269587828046E-03
   9.557366978181157E-03   9.653420113196587E-03   9.750438598267878E-03
   9.848432135324398E-03   9.947410523801496E-03   1.004738366162051E-02
   1.014836154617854E-02   1.025035427534818E-02   1.035337204848735E-02
   1.045742516745920E-02   1.056252403766234E-02   1.066867916907140E-02
   1.077590117728795E-02   1.088420078460217E-02   1.099358882106505E-02
   1.110407622557141E-02   1.121567404695374E-02   1.132839344508719E-02
   1.144224569200551E-02   1.155724217302827E-02   1.167339438789940E-02
   1.179071395193717E-02   1.190921259719577E-02   1.202890217363847E-02
   1.214979465032265E-02   1.227190211659672E-02   1.239523678330907E-02
   1.251981098402915E-02   1.264563717628085E-02   1.277272794278824E-02
   1.290109599273388E-02   1.303075416302975E-02   1.316171541960092E-02
   1.329399285868218E-02   1.342759970812767E-02   1.356254932873368E-02
   1.369885521557473E-02   1.383653099935308E-02   1.397559044776185E-02
   1.411604746686175E-02   1.425791610247177E-02   1.440121054157366E-02
   1.454594511373075E-02   1.469213429252088E-02   1.483979269698376E-02
   1.498893509308286E-02   1.513957639518209E-02   1.529173166753720E-02
   1.544541612580222E-02   1.560064513855103E-02   1.575743422881428E-02
   1.591579907563165E-02   1.607575551561981E-02   1.623731954455602E-02
   1.640050731897783E-02   1.656533515779867E-02   1.673181954393979E-02
   1.689997712597855E-02   1.706982471981324E-02   1.724137931034483E-02
   1.741465805317531E-02   1.758967827632337E-02   1.776645748195718E-02
   1.794501334814464E-02   1.812536373062112E-02   1.830752666457517E-02
   1.849152036645201E-02   1.867736323577515E-02   1.886507385698638E-02
   1.905467100130426E-02   1.924617362860122E-02   1.943960088929960E-02
   1.963497212628660E-02   1.983230687684876E-02   2.003162487462558E-02
   2.023294605158294E-02   2.043629054000630E-02   2.064167867451397E-02
   2.084913099409053E-02   2.105866824414085E-02   2.127031137856456E-02
   2.148408156185141E-02   2.170000017119790E-02   2.191808879864491E-02
   2.213836925323692E-02   2.236086356320296E-02   2.258559397815943E-02
   2.281258297133510E-02   2.304185324181851E-02   2.327342771682766E-02
   2.350732955400308E-02   2.374358214372340E-02   2.398220911144449E-02
   2.422323432006196E-02   2.446668187229753E-02   2.471257611310930E-02
   2.496094163212631E-02   2.521180326610734E-02   2.546518610142489E-02
   2.572111547657363E-02   2.597961698470437E-02   2.624071647618334E-02
   2.650444006117726E-02   2.677081411226440E-02   2.703986526707185E-02
   2.731162043093937E-02   2.758610677960968E-02   2.786335176194645E-02
   2.814338310267895E-02   2.842622880517462E-02   2.871191715423941E-02
   2.900047671894631E-02   2.929193635549223E-02   2.958632521008379E-02
   2.988367272185166E-02   3.018400862579486E-02   3.048736295575406E-02
   3.079376604741506E-02   3.110324854134236E-02   3.141584138604325E-02
   3.173157584106270E-02   3.205048348010937E-02   3.237259619421284E-02
   3.269794619491297E-02   3.302656601748098E-02   3.335848852417296E-02
   3.369374690751620E-02   3.403237469362839E-02   3.437440574557037E-02
   3.471987426673239E-02   3.506881480425435E-02   3.542126225248084E-02
   3.577725185645041E-02   3.613681921542009E-02   3.650000028642543E-02
   3.686683138787617E-02   3.723734920318818E-02   3.761159078445172E-02
   3.798959355613687E-02   3.837139531883568E-02   3.875703425304263E-02
   3.914654892297253E-02   3.953997828041695E-02   3.993736166863951E-02
   4.033873882631018E-02   4.074414989147920E-02   4.115363540559102E-02
   4.156723631753813E-02   4.198499398775649E-02   4.240695019236122E-02
   4.283314712732443E-02   4.326362741269479E-02   4.369843409685956E-02
   4.413761066084949E-02   4.458120102268705E-02   4.502924954177794E-02
   4.548180102334749E-02   4.593890072292101E-02   4.640059435084936E-02
   4.686692807688009E-02   4.733794853477441E-02   4.781370282697064E-02
   4.829423852929444E-02   4.877960369571659E-02   4.926984686315803E-02
   4.976501705634413E-02   5.026516379270685E-02   5.077033708733662E-02
   5.128058745798388E-02   5.179596593011090E-02   5.231652404199438E-02
   5.284231384987940E-02   5.337338793318473E-02   5.390979939976134E-02
   5.445160189120291E-02   5.499884958821009E-02   5.555159721600861E-02
   5.610990004982189E-02   5.667381392039856E-02   5.724339521959571E-02
   5.781870090601770E-02   5.839978851071271E-02   5.898671614292544E-02
   5.957954249590822E-02   6.017832685279037E-02   6.078312909250658E-02
   6.139400969578481E-02   6.201102975119446E-02   6.263425096125538E-02
   6.326373564860770E-02   6.389954676224484E-02   6.454174788380800E-02
   6.519040323394450E-02   6.584557767872992E-02   6.650733673615471E-02
   6.717574658267607E-02   6.785087405983581E-02   6.853278668094399E-02
   6.922155263783110E-02   6.991724080766683E-02   7.061992075984787E-02
   7.132966276295503E-02   7.204653779178009E-02   7.277061753442328E-02
   7.350197439946245E-02   7.424068152319327E-02   7.498681277694386E-02
   7.574044277446136E-02   7.650164687937354E-02   7.727050121272525E-02
   7.804708266059054E-02   7.883146888176133E-02   7.962373831551341E-02
   8.042397018945052E-02   8.123224452742663E-02   8.204864215754926E-02
   8.287324472026172E-02   8.370613467650748E-02   8.454739531597623E-02
   8.539711076543298E-02   8.625536599713078E-02   8.712224683730814E-02
   8.799783997477120E-02   8.888223296956352E-02   8.977551426172156E-02
   9.067777318011895E-02   9.158909995139942E-02   9.250958570899954E-02
   9.343932250226213E-02   9.437840330564147E-02   9.532692202800015E-02
   9.628497352200099E-02   9.725265359359178E-02   9.823005901158607E-02
   9.921728751734019E-02   1.002144378345274E-01   1.012216096790103E-01
   1.022389037688128E-01   1.032664218341917E-01   1.043042666278095E-01
   1.053525419350106E-01   1.064113525841992E-01   1.074808044573227E-01
   1.085610045004596E-01   1.096520607345143E-01   1.107540822660195E-01
   1.118671792980468E-01   1.129914631412268E-01   1.141270462248807E-01
   1.152740421082633E-01   1.164325654919187E-01   1.176027322291509E-01
   1.187846593376085E-01   1.199784650109874E-01   1.211842686308500E-01
   1.224021907785627E-01   1.236323532473555E-01   1.248748790545003E-01
   1.261298924536132E-01   1.273975189470802E-01   1.286778852986068E-01
   1.299711195458952E-01   1.312773510134478E-01   1.325967103255001E-01
   1.339293294190824E-01   1.352753415572147E-01   1.366348813422326E-01
   1.380080847292475E-01   1.393950890397424E-01   1.407960329753042E-01
   1.422110566314941E-01   1.436403015118569E-01   1.450839105420713E-01
   1.465420280842436E-01   1.480147999513430E-01   1.495023734217837E-01
   1.510048972541523E-01   1.525225217020841E-01   1.540553985292887E-01
   1.556036810247264E-01   1.571675240179365E-01   1.587470838945217E-01
   1.603425186117860E-01   1.619539877145308E-01   1.635816523510091E-01
   1.652256752890410E-01   1.668862209322903E-01   1.685634553367051E-01
   1.702575462271240E-01   1.719686630140470E-01   1.736969768105791E-01
   1.754426604495403E-01   1.772058885007491E-01   1.789868372884801E-01
   1.807856849090961E-01   1.826026112488582E-01   1.844377980019149E-01
   1.862914286884701E-01   1.881636886731376E-01   1.900547651834759E-01
   1.919648473287122E-01   1.938941261186525E-01   1.958427944827837E-01
   1.978110472895660E-01   1.997990813659207E-01   2.018070955169114E-01
   2.038352905456270E-01   2.058838692732605E-01   2.079530365593917E-01
   2.100429993224737E-01   2.121539665605243E-01   2.142861493720265E-01
   2.164397609770383E-01   2.186150167385153E-01   2.208121341838455E-01
   2.230313330266049E-01   2.252728351885269E-01   2.275368648216958E-01
   2.298236483309616E-01   2.321334143965808E-01   2.344663939970848E-01
   2.368228204323782E-01   2.392029293470675E-01   2.416069587540279E-01
   2.440351490582036E-01   2.464877430806483E-01   2.489649860828083E-01
   2.514671257910480E-01   2.539944124214235E-01   2.565470987047043E-01
   2.591254399116451E-01   2.617296938785156E-01   2.643601210328828E-01
   2.670169844196541E-01   2.697005497273823E-01   2.724110853148344E-01
   2.751488622378280E-01   2.779141542763368E-01   2.807072379618697E-01
   2.835283926051217E-01   2.863779003239088E-01   2.892560460713772E-01
   2.921631176645003E-01   2.950994058128599E-01   2.980652041477178E-01
   3.010608092513790E-01   3.040865206868507E-01   3.071426410277968E-01
   3.102294758887987E-01   3.133473339559150E-01   3.164965270175504E-01