<UPF version="2.0.1">
  <PP_INFO>
    Generated using "atomic" code by A. Dal Corso  v.6.8
    Author: D.C.
    Generation date:  7Nov2024
    Pseudopotential type: USPP
    Element: Ho
    Functional: PBE
    Suggested minimum cutoff for wavefunctions:  68. Ry
    Suggested minimum cutoff for charge density: 273. Ry
    The Pseudo was generated with a Scalar-Relativistic Calculation
    L component and cutoff radius for Local Potential:  2   2.1000
    Pseudopotential contains additional information for GIPAW reconstruction.
    Valence configuration: 
    nl pn  l   occ       Rcut    Rcut US       E pseu
    4F  4  3 11.00      1.300      2.000    -0.230862
    5F  5  3  0.00      1.300      2.000     0.000367
    5P  2  1  6.00      1.300      1.800    -1.901053
    6P  3  1  0.00      1.300      1.800    -0.084255
    5S  1  0  2.00      1.300      1.600    -3.702471
    6S  2  0  2.00      1.300      1.600    -0.278410
    5D  3  2  0.00      4.214      4.636    -0.076538
    Generation configuration:
    4F  4  3 11.00      1.300      2.000    -0.230947
    5F  5  3  0.00      1.300      2.000     0.500000
    5P  2  1  6.00      1.300      1.800    -1.901108
    6P  3  1  0.00      1.300      1.800     0.500000
    5S  1  0  2.00      1.300      1.600    -3.702539
    6S  2  0  2.00      1.300      1.600    -0.278424
    5D  3  2  0.00      2.100      2.100    -0.076562
    Pseudization used: troullier-martins
    <PP_INPUTFILE>
@input
title = 'Ho'
prefix = 'ho'
verbosity = 'high'
zed = 67
dft = 'pbe'
rel = 1
iswitch = 3
beta = 0.2
xmin = -8.0, dx = 0.01
nld = 4, rlderiv = 3.4, eminld  = -5.0, emaxld  = 5.0, deld = 0.002
/
16
1S  1  0   2.0
2S  2  0   2.0
2P  2  1   6.0
3S  3  0   2.0
3P  3  1   6.0
3D  3  2  10.0
4S  4  0   2.0
4P  4  1   6.0
4D  4  2  10.0
5S  5  0   2.0
5P  5  1   6.0
5D  5  2   0.0
4F  4  3  11.0
6S  6  0   2.0
6P  6  1   0.0
5F  5  3   0.0
@inputp
pseudotype = 3
lloc = 2
rcloc = 2.1
tm = .true.
nlcc = .true.
new_core_ps = .true.
rcore = 1.3
file_core = 'ho.core'
file_pseudopw = 'Ho.pbe-rrkjus-semi-gipaw-dc.UPF'
lgipaw_reconstruction = .true.
!upf_v1_format = .true.
author = 'D.C.'
/
7
4F  4  3 11.0  0.00  1.30  2.00
5F  5  3  0.0  0.50  1.30  2.00
5P  2  1  6.0  0.00  1.30  1.80
6P  3  1  0.0  0.50  1.30  1.80
5S  1  0  2.0  0.00  1.30  1.60
6S  2  0  2.0  0.00  1.30  1.60
5D  3  2  0.0  0.00  2.10  2.10
@test
ecutmin = 20
ecutmax = 60
decut   = 5
/
7
4F  4  3 11.0  0.00  1.30  2.00
5F  5  3  0.0  0.50  1.30  2.00
5P  2  1  6.0  0.00  1.30  1.80
6P  3  1  0.0  0.50  1.30  1.80
5S  1  0  2.0  0.00  1.30  1.60
6S  2  0  2.0  0.00  1.30  1.60
5D  3  2  0.0  0.00  2.10  2.10
    </PP_INPUTFILE>
  </PP_INFO>
    <!-- END OF HUMAN READABLE SECTION -->
  <PP_HEADER generated="Generated using 'atomic' code by A. Dal Corso  v.6.8" author="D.C." date=" 7Nov2024" comment="" element="Ho" pseudo_type="USPP" relativistic="scalar" is_ultrasoft="true" is_paw="false" is_coulomb="false" has_so="false" has_wfc="false" has_gipaw="true" paw_as_gipaw="false" core_correction="true" functional="PBE" z_valence="21.0000000000000" total_psenergy="-337.584066215402" wfc_cutoff="68.3124195334121" rho_cutoff="273.249678133648" l_max="3" l_max_rho="6" l_local="2" mesh_size="1681" number_of_wfc="7" number_of_proj="6"/>
  <PP_MESH mesh="1681" dx="1.000000000000000E-002" xmin="-8.00000000000000" rmax="100.000000000000" zmesh="67.0000000000000">
    <PP_R>
   5.006904894067341E-06   5.057225124827255E-06   5.108051082314021E-06
   5.159387849165745E-06   5.211240559101887E-06   5.263614397436653E-06
   5.316514601597523E-06   5.369946461649001E-06   5.423915320821610E-06
   5.478426576046244E-06   5.533485678493854E-06   5.589098134120572E-06
   5.645269504218295E-06   5.702005405970846E-06   5.759311513015681E-06
   5.817193556011265E-06   5.875657323210124E-06   5.934708661037699E-06
   5.994353474676986E-06   6.054597728659058E-06   6.115447447459505E-06
   6.176908716100920E-06   6.238987680761387E-06   6.301690549389110E-06
   6.365023592323191E-06   6.428993142920709E-06   6.493605598190032E-06
   6.558867419430530E-06   6.624785132878717E-06   6.691365330360859E-06
   6.758614669952193E-06   6.826539876642721E-06   6.895147743009721E-06
   6.964445129896991E-06   7.034438967100976E-06   7.105136254063721E-06
   7.176544060572847E-06   7.248669527468496E-06   7.321519867357471E-06
   7.395102365334468E-06   7.469424379710609E-06   7.544493342749258E-06
   7.620316761409280E-06   7.696902218095728E-06   7.774257371418100E-06
   7.852389956956175E-06   7.931307788033625E-06   8.011018756499326E-06
   8.091530833516554E-06   8.172852070360091E-06   8.254990599221398E-06
   8.337954634021808E-06   8.421752471233937E-06   8.506392490711348E-06
   8.591883156526510E-06   8.678233017817248E-06   8.765450709641661E-06
   8.853544953841597E-06   8.942524559914897E-06   9.032398425896316E-06
   9.123175539247348E-06   9.214864977754985E-06   9.307475910439469E-06
   9.401017598471254E-06   9.495499396097092E-06   9.590930751575490E-06
   9.687321208121510E-06   9.784680404861132E-06   9.883018077795169E-06
   9.982344060772870E-06   1.008266828647529E-05   1.018400078740861E-05
   1.028635169690736E-05   1.038973125014780E-05   1.049414978517139E-05
   1.059961774391864E-05   1.070614567327334E-05   1.081374422611717E-05
   1.092242416239512E-05   1.103219635019134E-05   1.114307176681611E-05
   1.125506149990349E-05   1.136817674852011E-05   1.148242882428509E-05
   1.159782915250122E-05   1.171438927329749E-05   1.183212084278312E-05
   1.195103563421315E-05   1.207114553916584E-05   1.219246256873177E-05
   1.231499885471499E-05   1.243876665084622E-05   1.256377833400819E-05
   1.269004640547342E-05   1.281758349215429E-05   1.294640234786571E-05
   1.307651585460062E-05   1.320793702381813E-05   1.334067899774468E-05
   1.347475505068826E-05   1.361017859036591E-05   1.374696315924446E-05
   1.388512243589476E-05   1.402467023635964E-05   1.416562051553541E-05
   1.430798736856746E-05   1.445178503225974E-05   1.459702788649843E-05
   1.474373045568999E-05   1.489190741021361E-05   1.504157356788822E-05
   1.519274389545431E-05   1.534543351007059E-05   1.549965768082579E-05
   1.565543183026551E-05   1.581277153593448E-05   1.597169253193439E-05
   1.613221071049729E-05   1.629434212357479E-05   1.645810298444331E-05
   1.662350966932542E-05   1.679057871902742E-05   1.695932684059352E-05
   1.712977090897651E-05   1.730192796872524E-05   1.747581523568917E-05
   1.765145009873989E-05   1.782885012151008E-05   1.800803304414986E-05
   1.818901678510078E-05   1.837181944288778E-05   1.855645929792898E-05
   1.874295481436372E-05   1.893132464189909E-05   1.912158761767480E-05
   1.931376276814698E-05   1.950786931099086E-05   1.970392665702243E-05
   1.990195441213969E-05   2.010197237928320E-05   2.030400056041633E-05
   2.050805915852555E-05   2.071416857964073E-05   2.092234943487574E-05
   2.113262254248958E-05   2.134500892996828E-05   2.155952983612751E-05
   2.177620671323669E-05   2.199506122916412E-05   2.221611526954372E-05
   2.243939093996377E-05   2.266491056817737E-05   2.289269670633527E-05
   2.312277213324114E-05   2.335515985662935E-05   2.358988311546592E-05
   2.382696538227237E-05   2.406643036547289E-05   2.430830201176538E-05
   2.455260450851604E-05   2.479936228617812E-05   2.504860002073504E-05
   2.530034263616792E-05   2.555461530694810E-05   2.581144346055458E-05
   2.607085278001671E-05   2.633286920648262E-05   2.659751894181331E-05
   2.686482845120285E-05   2.713482446582494E-05   2.740753398550607E-05
   2.768298428142542E-05   2.796120289884214E-05   2.824221765984985E-05
   2.852605666615877E-05   2.881274830190611E-05   2.910232123649434E-05
   2.939480442745823E-05   2.969022712336065E-05   2.998861886671732E-05
   3.029000949695125E-05   3.059442915337667E-05   3.090190827821284E-05
   3.121247761962851E-05   3.152616823481663E-05   3.184301149310012E-05
   3.216303907906888E-05   3.248628299574814E-05   3.281277556779898E-05
   3.314254944475068E-05   3.347563760426573E-05   3.381207335543764E-05
   3.415189034212193E-05   3.449512254630043E-05   3.484180429147960E-05
   3.519197024612288E-05   3.554565542711747E-05   3.590289520327626E-05
   3.626372529887459E-05   3.662818179722264E-05   3.699630114427401E-05
   3.736812015227015E-05   3.774367600342173E-05   3.812300625362684E-05
   3.850614883622657E-05   3.889314206579849E-05   3.928402464198807E-05
   3.967883565337862E-05   4.007761458140031E-05   4.048040130427826E-05
   4.088723610102042E-05   4.129815965544550E-05   4.171321306025140E-05
   4.213243782112442E-05   4.255587586089007E-05   4.298356952370512E-05
   4.341556157929230E-05   4.385189522721717E-05   4.429261410120812E-05
   4.473776227351983E-05   4.518738425934053E-05   4.564152502124339E-05
   4.610022997368316E-05   4.656354498753724E-05   4.703151639469316E-05
   4.750419099268160E-05   4.798161604935627E-05   4.846383930762069E-05
   4.895090899020258E-05   4.944287380447601E-05   4.993978294733247E-05
   5.044168611010023E-05   5.094863348351388E-05   5.146067576273323E-05
   5.197786415241288E-05   5.250025037182281E-05   5.302788666002027E-05
   5.356082578107385E-05   5.409912102933964E-05   5.464282623479117E-05
   5.519199576840197E-05   5.574668454758309E-05   5.630694804167470E-05
   5.687284227749309E-05   5.744442384493343E-05   5.802174990262881E-05
   5.860487818366604E-05   5.919386700135923E-05   5.978877525508090E-05
   6.038966243615222E-05   6.099658863379204E-05   6.160961454112591E-05
   6.222880146125540E-05   6.285421131338859E-05   6.348590663903172E-05
   6.412395060824393E-05   6.476840702595371E-05   6.541934033833994E-05
   6.607681563927629E-05   6.674089867684078E-05   6.741165585989055E-05
   6.808915426470286E-05   6.877346164168286E-05   6.946464642213839E-05
   7.016277772512358E-05   7.086792536435041E-05   7.158015985517047E-05
   7.229955242162638E-05   7.302617500357427E-05   7.376010026387787E-05
   7.450140159567488E-05   7.525015312971610E-05   7.600642974177904E-05
   7.677030706015497E-05   7.754186147321241E-05   7.832117013703559E-05
   7.910831098314032E-05   7.990336272626721E-05   8.070640487225314E-05
   8.151751772598177E-05   8.233678239941458E-05   8.316428081970146E-05
   8.400009573737411E-05   8.484431073462082E-05   8.569701023364481E-05
   8.655827950510659E-05   8.742820467665100E-05   8.830687274152025E-05
   8.919437156725288E-05   9.009078990447119E-05   9.099621739575578E-05
   9.191074458461040E-05   9.283446292451601E-05   9.376746478807638E-05
   9.470984347625537E-05   9.566169322770722E-05   9.662310922820008E-05
   9.759418762013537E-05   9.857502551216136E-05   9.956572098888470E-05
   1.005663731206786E-04   1.015770819735902E-04   1.025979486193470E-04
   1.036290751454644E-04   1.046705646654541E-04   1.057225213291362E-04
   1.067850503330535E-04   1.078582579309920E-04   1.089422514446057E-04
   1.100371392741494E-04   1.111430309093185E-04   1.122600369401980E-04
   1.133882690683219E-04   1.145278401178431E-04   1.156788640468164E-04
   1.168414559585936E-04   1.180157321133349E-04   1.192018099396344E-04
   1.203998080462629E-04   1.216098462340296E-04   1.228320455077616E-04
   1.240665280884048E-04   1.253134174252459E-04   1.265728382082577E-04
   1.278449163805681E-04   1.291297791510542E-04   1.304275550070640E-04
   1.317383737272645E-04   1.330623663946202E-04   1.343996654095009E-04
   1.357504045029227E-04   1.371147187499205E-04   1.384927445830559E-04
   1.398846198060606E-04   1.412904836076168E-04   1.427104765752762E-04
   1.441447407095189E-04   1.455934194379538E-04   1.470566576296606E-04
   1.485346016096780E-04   1.500273991736356E-04   1.515351996025338E-04
   1.530581536776720E-04   1.545964136957268E-04   1.561501334839820E-04
   1.577194684157113E-04   1.593045754257153E-04   1.609056130260163E-04
   1.625227413217082E-04   1.641561220269684E-04   1.658059184812285E-04
   1.674722956655087E-04   1.691554202189162E-04   1.708554604553091E-04
   1.725725863801274E-04   1.743069697073948E-04   1.760587838768891E-04
   1.778282040714873E-04   1.796154072346832E-04   1.814205720882826E-04
   1.832438791502752E-04   1.850855107528865E-04   1.869456510608117E-04
   1.888244860896314E-04   1.907222037244145E-04   1.926389937385056E-04
   1.945750478125035E-04   1.965305595534291E-04   1.985057245140861E-04
   2.005007402126165E-04   2.025158061522527E-04   2.045511238412678E-04
   2.066068968131271E-04   2.086833306468404E-04   2.107806329875218E-04
   2.128990135671531E-04   2.150386842255574E-04   2.171998589315839E-04
   2.193827538045042E-04   2.215875871356244E-04   2.238145794101152E-04
   2.260639533290596E-04   2.283359338317242E-04   2.306307481180525E-04
   2.329486256713855E-04   2.352897982814102E-04   2.376545000673386E-04
   2.400429675013199E-04   2.424554394320876E-04   2.448921571088457E-04
   2.473533642053919E-04   2.498393068444871E-04   2.523502336224668E-04
   2.548863956341014E-04   2.574480464977054E-04   2.600354423805002E-04
   2.626488420242297E-04   2.652885067710367E-04   2.679547005895950E-04
   2.706476901015086E-04   2.733677446079728E-04   2.761151361167051E-04
   2.788901393691460E-04   2.816930318679327E-04   2.845240939046513E-04
   2.873836085878645E-04   2.902718618714239E-04   2.931891425830642E-04
   2.961357424532879E-04   2.991119561445375E-04   3.021180812806624E-04
   3.051544184766816E-04   3.082212713688443E-04   3.113189466449958E-04
   3.144477540752451E-04   3.176080065429429E-04   3.208000200759690E-04
   3.240241138783369E-04   3.272806103621136E-04   3.305698351796616E-04
   3.338921172562030E-04   3.372477888227144E-04   3.406371854491488E-04
   3.440606460779938E-04   3.475185130581643E-04   3.510111321792404E-04
   3.545388527060447E-04   3.581020274135699E-04   3.617010126222556E-04
   3.653361682336219E-04   3.690078577662595E-04   3.727164483921816E-04
   3.764623109735406E-04   3.802458200997167E-04   3.840673541247752E-04
   3.879272952053038E-04   3.918260293386264E-04   3.957639464014057E-04
   3.997414401886295E-04   4.037589084529911E-04   4.078167529446652E-04
   4.119153794514819E-04   4.160551978395077E-04   4.202366220940313E-04
   4.244600703609630E-04   4.287259649886483E-04   4.330347325701053E-04
   4.373868039856828E-04   4.417826144461494E-04   4.462226035362138E-04
   4.507072152584851E-04   4.552368980778729E-04   4.598121049664342E-04
   4.644332934486698E-04   4.691009256472793E-04   4.738154683293722E-04
   4.785773929531460E-04   4.833871757150306E-04   4.882452975973107E-04
   4.931522444162229E-04   4.981085068705388E-04   5.031145805906331E-04
   5.081709661880499E-04   5.132781693055628E-04   5.184367006677396E-04
   5.236470761320155E-04   5.289098167402782E-04   5.342254487709745E-04
   5.395945037917375E-04   5.450175187125435E-04   5.504950358394032E-04
   5.560276029285942E-04   5.616157732414358E-04   5.672601055996169E-04
   5.729611644410758E-04   5.787195198764479E-04   5.845357477460756E-04
   5.904104296775932E-04   5.963441531440883E-04   6.023375115228529E-04
   6.083911041547196E-04   6.145055364039963E-04   6.206814197190027E-04
   6.269193716932172E-04   6.332200161270356E-04   6.395839830901522E-04
   6.460119089845659E-04   6.525044366082230E-04   6.590622152192965E-04
   6.656859006011122E-04   6.723761551277287E-04   6.791336478301727E-04
   6.859590544633464E-04   6.928530575736007E-04   6.998163465669927E-04
   7.068496177782228E-04   7.139535745402741E-04   7.211289272547428E-04
   7.283763934628803E-04   7.356966979173459E-04   7.430905726546858E-04
   7.505587570685353E-04   7.581019979835600E-04   7.657210497301364E-04
   7.734166742197886E-04   7.811896410213788E-04   7.890407274380655E-04
   7.969707185850315E-04   8.049804074680003E-04   8.130705950625352E-04
   8.212420903941382E-04   8.294957106191505E-04   8.378322811064735E-04
   8.462526355201030E-04   8.547576159024974E-04   8.633480727587834E-04
   8.720248651418034E-04   8.807888607380275E-04   8.896409359543185E-04
   8.985819760055757E-04   9.076128750032534E-04   9.167345360447780E-04
   9.259478713038551E-04   9.352538021216892E-04   9.446532590991154E-04
   9.541471821896652E-04   9.637365207935593E-04   9.734222338526501E-04
   9.832052899463131E-04   9.930866673883113E-04   1.003067354324623E-03
   1.013148348832261E-03   1.023330659019074E-03   1.033615303124567E-03
   1.044003309621722E-03   1.054495717319845E-03   1.065093575468449E-03
   1.075797943862181E-03   1.086609892946800E-03   1.097530503926225E-03
   1.108560868870655E-03   1.119702090825776E-03   1.130955283923067E-03
   1.142321573491216E-03   1.153802096168654E-03   1.165398000017211E-03
   1.177110444636940E-03   1.188940601282060E-03   1.200889652978096E-03
   1.212958794640175E-03   1.225149233192519E-03   1.237462187689144E-03
   1.249898889435761E-03   1.262460582112906E-03   1.275148521900317E-03
   1.287963977602545E-03   1.300908230775841E-03   1.313982575856307E-03
   1.327188320289348E-03   1.340526784660412E-03   1.353999302827053E-03
   1.367607222052312E-03   1.381351903139452E-03   1.395234720568037E-03
   1.409257062631378E-03   1.423420331575368E-03   1.437725943738702E-03
   1.452175329694519E-03   1.466769934393455E-03   1.481511217308145E-03
   1.496400652579160E-03   1.511439729162439E-03   1.526629950978171E-03
   1.541972837061198E-03   1.557469921712911E-03   1.573122754654692E-03
   1.588932901182878E-03   1.604901942325298E-03   1.621031474999373E-03
   1.637323112171812E-03   1.653778483019908E-03   1.670399233094462E-03
   1.687187024484327E-03   1.704143535982634E-03   1.721270463254664E-03
   1.738569519007418E-03   1.756042433160884E-03   1.773690953021040E-03
   1.791516843454578E-03   1.809521887065397E-03   1.827707884372865E-03
   1.846076653991863E-03   1.864630032814663E-03   1.883369876194608E-03
   1.902298058131654E-03   1.921416471459765E-03   1.940727028036208E-03
   1.960231658932732E-03   1.979932314628683E-03   1.999830965206045E-03
   2.019929600546458E-03   2.040230230530206E-03   2.060734885237207E-03
   2.081445615150015E-03   2.102364491358880E-03   2.123493605768859E-03
   2.144835071309000E-03   2.166391022143638E-03   2.188163613885823E-03
   2.210155023812872E-03   2.232367451084107E-03   2.254803116960760E-03
   2.277464265028118E-03   2.300353161419872E-03   2.323472095044737E-03
   2.346823377815338E-03   2.370409344879414E-03   2.394232354853324E-03
   2.418294790057921E-03   2.442599056756778E-03   2.467147585396814E-03
   2.491942830851353E-03   2.516987272665604E-03   2.542283415304619E-03
   2.567833788403740E-03   2.593640947021569E-03   2.619707471895475E-03
   2.646035969699670E-03   2.672629073305870E-03   2.699489442046598E-03
   2.726619761981114E-03   2.754022746164020E-03   2.781701134916568E-03
   2.809657696100698E-03   2.837895225395828E-03   2.866416546578421E-03
   2.895224511804358E-03   2.924322001894170E-03   2.953711926621114E-03
   2.983397225002158E-03   3.013380865591872E-03   3.043665846779306E-03
   3.074255197087812E-03   3.105151975477916E-03   3.136359271653206E-03
   3.167880206369300E-03   3.199717931745939E-03   3.231875631582194E-03
   3.264356521674849E-03   3.297163850139974E-03   3.330300897737758E-03
   3.363770978200577E-03   3.397577438564371E-03   3.431723659503342E-03
   3.466213055668042E-03   3.501049076026830E-03   3.536235204210774E-03
   3.571774958862009E-03   3.607671893985619E-03   3.643929599305031E-03
   3.680551700620994E-03   3.717541860174153E-03   3.754903777011291E-03
   3.792641187355228E-03   3.830757864978448E-03   3.869257621580472E-03
   3.908144307169045E-03   3.947421810445134E-03   3.987094059191796E-03
   4.027165020666970E-03   4.067638702000189E-03   4.108519150593319E-03
   4.149810454525285E-03   4.191516742960893E-03   4.233642186563738E-03
   4.276190997913285E-03   4.319167431926128E-03   4.362575786281486E-03
   4.406420401850959E-03   4.450705663132648E-03   4.495435998689582E-03
   4.540615881592600E-03   4.586249829867632E-03   4.632342406947538E-03
   4.678898222128437E-03   4.725921931030648E-03   4.773418236064239E-03
   4.821391886899297E-03   4.869847680940888E-03   4.918790463808794E-03
   4.968225129822084E-03   5.018156622488558E-03   5.068589934999091E-03
   5.119530110726964E-03   5.170982243732202E-03   5.222951479270977E-03
   5.275443014310151E-03   5.328462098046974E-03   5.382014032434007E-03
   5.436104172709304E-03   5.490737927931975E-03   5.545920761523069E-03
   5.601658191811937E-03   5.657955792588044E-03   5.714819193658389E-03
   5.772254081410464E-03   5.830266199380915E-03   5.888861348829869E-03
   5.948045389321107E-03   6.007824239307999E-03   6.068203876725363E-03
   6.129190339587248E-03   6.190789726590768E-03   6.253008197725955E-03
   6.315851974891777E-03   6.379327342518310E-03   6.443440648195220E-03
   6.508198303306501E-03   6.573606783671629E-03   6.639672630193154E-03
   6.706402449510772E-03   6.773802914662027E-03   6.841880765749603E-03
   6.910642810615347E-03   6.980095925521035E-03   7.050247055836040E-03
   7.121103216731855E-03   7.192671493883622E-03   7.264959044178684E-03
   7.337973096432315E-03   7.411720952110588E-03   7.486209986060534E-03
   7.561447647247609E-03   7.637441459500635E-03   7.714199022264167E-03
   7.791728011358454E-03   7.870036179746997E-03   7.949131358311899E-03
   8.029021456636932E-03   8.109714463798509E-03   8.191218449164575E-03
   8.273541563201599E-03   8.356692038289582E-03   8.440678189545327E-03
   8.525508415653957E-03   8.611191199708757E-03   8.697735110059546E-03
   8.785148801169479E-03   8.873441014480517E-03   8.962620579287555E-03
   9.052696413621395E-03   9.143677525140536E-03   9.235573012031957E-03
   9.328392063920910E-03   9.422143962789939E-03   9.516838083907063E-03
   9.612483896763308E-03   9.709090966019653E-03   9.806668952463534E-03
   9.905227613974915E-03   1.000477680650208E-02   1.010532648504724E-02
   1.020688670466203E-02   1.030946762145305E-02   1.041307949359748E-02
   1.051773268236886E-02   1.062343765317328E-02   1.073020497659591E-02
   1.083804532945807E-02   1.094696949588492E-02   1.105698836838385E-02
   1.116811294893381E-02   1.128035435008545E-02   1.139372379607244E-02
   1.150823262393383E-02   1.162389228464783E-02   1.174071434427691E-02
   1.185871048512439E-02   1.197789250690267E-02   1.209827232791324E-02
   1.221986198623853E-02   1.234267364094571E-02   1.246671957330257E-02
   1.259201218800573E-02   1.271856401442106E-02   1.284638770783669E-02
   1.297549605072845E-02   1.310590195403823E-02   1.323761845846503E-02
   1.337065873576909E-02   1.350503609008895E-02   1.364076395927206E-02
   1.377785591621844E-02   1.391632567023804E-02   1.405618706842163E-02
   1.419745409702558E-02   1.434014088287049E-02   1.448426169475385E-02
   1.462983094487695E-02   1.477686319028609E-02   1.492537313432836E-02
   1.507537562812191E-02   1.522688567204112E-02   1.537991841721666E-02
   1.553448916705058E-02   1.569061337874664E-02   1.584830666485612E-02
   1.600758479483906E-02   1.616846369664117E-02   1.633095945828672E-02
   1.649508832948727E-02   1.666086672326672E-02   1.682831121760264E-02
   1.699743855708392E-02   1.716826565458549E-02   1.734080959295945E-02
   1.751508762674344E-02   1.769111718388605E-02   1.786891586748970E-02
   1.804850145757091E-02   1.822989191283834E-02   1.841310537248872E-02
   1.859816015802062E-02   1.878507477506684E-02   1.897386791524485E-02
   1.916455845802599E-02   1.935716547262346E-02   1.955170821989921E-02
   1.974820615429009E-02   1.994667892575333E-02   2.014714638173140E-02
   2.034962856913699E-02   2.055414573635757E-02   2.076071833528030E-02
   2.096936702333722E-02   2.118011266557100E-02   2.139297633672149E-02
   2.160797932333322E-02   2.182514312588396E-02   2.204448946093497E-02
   2.226604026330255E-02   2.248981768825155E-02   2.271584411371095E-02
   2.294414214251166E-02   2.317473460464680E-02   2.340764455955474E-02
   2.364289529842512E-02   2.388051034652778E-02   2.412051346556558E-02
   2.436292865605044E-02   2.460778015970341E-02   2.485509246187890E-02
   2.510489029401322E-02   2.535719863609776E-02   2.561204271917701E-02
   2.586944802787159E-02   2.612944030292689E-02   2.639204554378710E-02
   2.665729001119512E-02   2.692520022981876E-02   2.719580299090311E-02
   2.746912535494980E-02   2.774519465442304E-02   2.802403849648276E-02
   2.830568476574556E-02   2.859016162707308E-02   2.887749752838853E-02
   2.916772120352148E-02   2.946086167508130E-02   2.975694825735942E-02
   3.005601055926088E-02   3.035807848726496E-02   3.066318224841625E-02
   3.097135235334513E-02   3.128261961931889E-02   3.159701517332351E-02
   3.191457045517639E-02   3.223531722067036E-02   3.255928754474925E-02
   3.288651382471550E-02   3.321702878346969E-02   3.355086547278317E-02
   3.388805727660308E-02   3.422863791439079E-02   3.457264144449390E-02
   3.492010226755209E-02   3.527105512993722E-02   3.562553512722805E-02
   3.598357770771957E-02   3.634521867596830E-02   3.671049419637240E-02
   3.707944079678831E-02   3.745209537218355E-02   3.782849518832618E-02
   3.820867788551150E-02   3.859268148232611E-02   3.898054437944955E-02
   3.937230536349484E-02   3.976800361088684E-02   4.016767869178004E-02
   4.057137057401560E-02   4.097911962711815E-02   4.139096662633279E-02
   4.180695275670265E-02   4.222711961718750E-02   4.265150922482337E-02
   4.308016401892478E-02   4.351312686532832E-02   4.395044106067947E-02
   4.439215033676216E-02   4.483829886487212E-02   4.528893126023394E-02
   4.574409258646276E-02   4.620382836007036E-02   4.666818455501728E-02
   4.713720760730999E-02   4.761094441964455E-02   4.808944236609701E-02
   4.857274929686074E-02   4.906091354303159E-02   4.955398392144107E-02
   5.005200973953771E-02   5.055504080031846E-02   5.106312740730858E-02
   5.157632036959219E-02   5.209467100689315E-02   5.261823115470719E-02
   5.314705316948536E-02   5.368118993386983E-02   5.422069486198228E-02
   5.476562190476487E-02   5.531602555537613E-02   5.587196085463975E-02
   5.643348339654897E-02   5.700064933382590E-02   5.757351538353691E-02
   5.815213883276436E-02   5.873657754433548E-02   5.932688996260823E-02
   5.992313511931648E-02   6.052537263947278E-02   6.113366274733099E-02
   6.174806627240884E-02   6.236864465557083E-02   6.299545995517239E-02
   6.362857485326601E-02   6.426805266186880E-02   6.491395732929468E-02
   6.556635344654864E-02   6.622530625378605E-02   6.689088164683678E-02
   6.756314618379480E-02   6.824216709167398E-02   6.892801227313101E-02
   6.962075031325568E-02   7.032045048642903E-02   7.102718276325160E-02
   7.174101781754000E-02   7.246202703339454E-02   7.319028251233763E-02
   7.392585708052407E-02   7.466882429602366E-02   7.541925845617720E-02
   7.617723460502582E-02   7.694282854081617E-02   7.771611682357986E-02
   7.849717678278954E-02   7.928608652509204E-02   8.008292494211901E-02
   8.088777171837618E-02   8.170070733921202E-02   8.252181309886580E-02
   8.335117110859787E-02   8.418886430490034E-02   8.503497645779093E-02
   8.588959217919001E-02   8.675279693138190E-02   8.762467703556118E-02
   8.850531968046481E-02   8.939481293109132E-02   9.029324573750672E-02
   9.120070794374049E-02   9.211729029676947E-02   9.304308445559280E-02
   9.397818300039786E-02   9.492267944181834E-02   9.587666823028552E-02
   9.684024476547340E-02   9.781350540583811E-02   9.879654747825495E-02
   9.978946928775033E-02   1.007923701273327E-01   1.018053502879216E-01
   1.028285110683775E-01   1.038619547856309E-01   1.049057847849149E-01
   1.059601054500991E-01   1.070250222141286E-01   1.081006415695674E-01
   1.091870710792473E-01   1.102844193870246E-01   1.113927962286447E-01
   1.125123124427152E-01   1.136430799817906E-01   1.147852119235672E-01
   1.159388224821907E-01   1.171040270196784E-01   1.182809420574551E-01
   1.194696852880053E-01   1.206703755866427E-01   1.218831330233977E-01
   1.231080788750247E-01   1.243453356371299E-01   1.255950270364199E-01
   1.268572780430765E-01   1.281322148832522E-01   1.294199650516934E-01
   1.307206573244901E-01   1.320344217719534E-01   1.333613897716230E-01
   1.347016940214049E-01   1.360554685528405E-01   1.374228487445113E-01
   1.388039713355760E-01   1.401989744394445E-01   1.416079975575899E-01
   1.430311815934981E-01   1.444686688667588E-01   1.459206031272970E-01
   1.473871295697491E-01   1.488683948479810E-01   1.503645470897551E-01
   1.518757359115424E-01   1.534021124334843E-01   1.549438292945051E-01
   1.565010406675757E-01   1.580739022751310E-01   1.596625714046427E-01
   1.612672069243473E-01   1.628879692991340E-01   1.645250206065911E-01
   1.661785245532135E-01   1.678486464907738E-01   1.695355534328575E-01
   1.712394140715646E-01   1.729603987943791E-01   1.746986797012069E-01
   1.764544306215876E-01   1.782278271320762E-01   1.800190465738018E-01
   1.818282680702011E-01   1.836556725449315E-01   1.855014427399633E-01
   1.873657632338541E-01   1.892488204602073E-01   1.911508027263140E-01
   1.930719002319863E-01   1.950123050885756E-01   1.969722113381845E-01
   1.989518149730712E-01   2.009513139552490E-01   2.029709082362824E-01
   2.050107997772826E-01   2.070711925691032E-01   2.091522926527406E-01
   2.112543081399374E-01   2.133774492339941E-01   2.155219282507893E-01
   2.176879596400117E-01   2.198757600066054E-01   2.220855481324306E-01
   2.243175449981405E-01   2.265719738052822E-01   2.288490599986150E-01
   2.311490312886558E-01   2.334721176744503E-01   2.358185514665730E-01
   2.381885673103585E-01   2.405824022093662E-01   2.430002955490812E-01
   2.454424891208517E-01   2.479092271460702E-01   2.504007563005952E-01
   2.529173257394182E-01   2.554591871215802E-01   2.580265946353378E-01
   2.606198050235818E-01   2.632390776095125E-01   2.658846743225703E-01
   2.685568597246317E-01   2.712559010364637E-01   2.739820681644466E-01