<UPF version="2.0.1">
  <PP_INFO>
    Generated using "atomic" code by A. Dal Corso  v.6.8
    Author: D.C.
    Generation date: 24Oct2024
    Pseudopotential type: USPP
    Element: Pm
    Functional: PBE
    Suggested minimum cutoff for wavefunctions:  67. Ry
    Suggested minimum cutoff for charge density: 267. Ry
    The Pseudo was generated with a Scalar-Relativistic Calculation
    L component and cutoff radius for Local Potential:  2   2.1000
    Pseudopotential contains additional information for GIPAW reconstruction.
    Valence configuration: 
    nl pn  l   occ       Rcut    Rcut US       E pseu
    4F  4  3  5.00      1.300      1.800    -0.158165
    5F  5  3  0.00      1.300      2.000     0.001191
    5P  2  1  6.00      1.300      1.800    -1.666314
    6P  3  1  0.00      1.300      1.800    -0.089658
    5S  1  0  2.00      1.300      1.600    -3.077540
    6S  2  0  2.00      1.300      1.600    -0.260332
    5D  3  2  0.00      4.403      4.843    -0.132500
    Generation configuration:
    4F  4  3  5.00      1.300      1.800    -0.158180
    5F  5  3  0.00      1.300      2.000     0.500000
    5P  2  1  6.00      1.300      1.800    -1.666291
    6P  3  1  0.00      1.300      1.800     0.500000
    5S  1  0  2.00      1.300      1.600    -3.077520
    6S  2  0  2.00      1.300      1.600    -0.260328
    5D  3  2  0.00      2.100      2.100    -0.132495
    Pseudization used: troullier-martins
    <PP_INPUTFILE>
@input
title = 'Pm'
prefix = 'pm'
verbosity = 'high'
zed = 61
dft = 'pbe'
rel = 1
iswitch = 3
beta = 0.2
xmin = -8.0, dx = 0.01
nld = 4, rlderiv = 3.4, eminld  = -5.0, emaxld  = 5.0, deld = 0.002
/
16
1S  1  0   2.0
2S  2  0   2.0
2P  2  1   6.0
3S  3  0   2.0
3P  3  1   6.0
3D  3  2  10.0
4S  4  0   2.0
4P  4  1   6.0
4D  4  2  10.0
5S  5  0   2.0
5P  5  1   6.0
5D  5  2   0.0
4F  4  3   5.0
6S  6  0   2.0
6P  6  1   0.0
5F  5  3   0.0
@inputp
pseudotype = 3
lloc = 2
rcloc = 2.1
tm = .true.
nlcc = .true.
new_core_ps = .true.
rcore = 1.3
file_core = 'pm.core'
file_pseudopw = 'Pm.pbe-rrkjus-semi-gipaw-dc.UPF'
lgipaw_reconstruction = .true.
!upf_v1_format = .true.
author = 'D.C.'
/
7
4F  4  3  5.0  0.00  1.30  1.80
5F  5  3  0.0  0.50  1.30  2.00
5P  2  1  6.0  0.00  1.30  1.80
6P  3  1  0.0  0.50  1.30  1.80
5S  1  0  2.0  0.00  1.30  1.60
6S  2  0  2.0  0.00  1.30  1.60
5D  3  2  0.0  0.00  2.10  2.10
@test
!ecutmin = 20
!ecutmax = 60
!decut   = 5
/
7
4F  4  3  5.0  0.00  1.30  1.80
5F  5  3  0.0  0.50  1.30  2.00
5P  2  1  6.0  0.00  1.30  1.80
6P  3  1  0.0  0.50  1.30  1.80
5S  1  0  2.0  0.00  1.30  1.60
6S  2  0  2.0  0.00  1.30  1.60
5D  3  2  0.0  0.00  2.10  2.10
    </PP_INPUTFILE>
  </PP_INFO>
    <!-- END OF HUMAN READABLE SECTION -->
  <PP_HEADER generated="Generated using 'atomic' code by A. Dal Corso  v.6.8" author="D.C." date="24Oct2024" comment="" element="Pm" pseudo_type="USPP" relativistic="scalar" is_ultrasoft="true" is_paw="false" is_coulomb="false" has_so="false" has_wfc="false" has_gipaw="true" paw_as_gipaw="false" core_correction="true" functional="PBE" z_valence="15.0000000000000" total_psenergy="-155.502394474753" wfc_cutoff="66.6973441342241" rho_cutoff="266.789376536897" l_max="3" l_max_rho="6" l_local="2" mesh_size="1673" number_of_wfc="7" number_of_proj="6"/>
  <PP_MESH mesh="1673" dx="1.000000000000000E-002" xmin="-8.00000000000000" rmax="100.000000000000" zmesh="61.0000000000000">
    <PP_R>
   5.499387342664129E-06   5.554657104318461E-06   5.610482336312121E-06
   5.666868621214835E-06   5.723821597702072E-06   5.781346961118947E-06
   5.839450464049738E-06   5.898137916893165E-06   5.957415188443407E-06
   6.017288206477022E-06   6.077762958345708E-06   6.138845491575054E-06
   6.200541914469274E-06   6.262858396722077E-06   6.325801170033617E-06
   6.389376528733685E-06   6.453590830411120E-06   6.518450496549604E-06
   6.583962013169805E-06   6.650131931477981E-06   6.716966868521095E-06
   6.784473507848551E-06   6.852658600180539E-06   6.921528964083120E-06
   6.991091486650063E-06   7.061353124191598E-06   7.132320902930035E-06
   7.204001919702385E-06   7.276403342670066E-06   7.349532412035697E-06
   7.423396440767163E-06   7.498002815328890E-06   7.573358996420513E-06
   7.649472519722925E-06   7.726350996651891E-06   7.804002115119169E-06
   7.882433640301324E-06   7.961653415416216E-06   8.041669362507385E-06
   8.122489483236219E-06   8.204121859682145E-06   8.286574655150825E-06
   8.369856114990522E-06   8.453974567416620E-06   8.538938424344470E-06
   8.624756182230554E-06   8.711436422922180E-06   8.798987814515653E-06
   8.887419112223100E-06   8.976739159247969E-06   9.066956887669403E-06
   9.158081319335427E-06   9.250121566765145E-06   9.343086834060006E-06
   9.436986417824198E-06   9.531829708094353E-06   9.627626189278545E-06
   9.724385441104706E-06   9.822117139578656E-06   9.920831057951692E-06
   1.002053706769791E-05   1.012124513950138E-05   1.022296534425319E-05
   1.032570785405859E-05   1.042948294325418E-05   1.053430098943538E-05
   1.064017247449412E-05   1.074710798566714E-05   1.085511821659469E-05
   1.096421396838987E-05   1.107440615071876E-05   1.118570578289142E-05
   1.129812399496382E-05   1.141167202885086E-05   1.152636123945054E-05
   1.164220309577949E-05   1.175920918211989E-05   1.187739119917788E-05
   1.199676096525365E-05   1.211733041742327E-05   1.223911161273245E-05
   1.236211672940220E-05   1.248635806804668E-05   1.261184805290329E-05
   1.273859923307511E-05   1.286662428378577E-05   1.299593600764703E-05
   1.312654733593904E-05   1.325847132990347E-05   1.339172118204964E-05
   1.352631021747385E-05   1.366225189519174E-05   1.379955980948441E-05
   1.393824769125770E-05   1.407832940941537E-05   1.421981897224594E-05
   1.436273052882363E-05   1.450707837042319E-05   1.465287693194907E-05
   1.480014079337891E-05   1.494888468122158E-05   1.509912346998981E-05
   1.525087218368769E-05   1.540414599731305E-05   1.555896023837496E-05
   1.571533038842656E-05   1.587327208461316E-05   1.603280112123598E-05
   1.619393345133163E-05   1.635668518826741E-05   1.652107260735263E-05
   1.668711214746621E-05   1.685482041270049E-05   1.702421417402177E-05
   1.719531037094736E-05   1.736812611323951E-05   1.754267868261647E-05
   1.771898553448063E-05   1.789706429966411E-05   1.807693278619183E-05
   1.825860898106235E-05   1.844211105204651E-05   1.862745734950436E-05
   1.881466640822010E-05   1.900375694925560E-05   1.919474788182253E-05
   1.938765830517332E-05   1.958250751051107E-05   1.977931498291869E-05
   1.997810040330741E-05   2.017888365038494E-05   2.038168480264330E-05
   2.058652414036671E-05   2.079342214765965E-05   2.100239951449527E-05
   2.121347713878439E-05   2.142667612846537E-05   2.164201780361480E-05
   2.185952369857966E-05   2.207921556413073E-05   2.230111536963761E-05
   2.252524530526577E-05   2.275162778419556E-05   2.298028544486351E-05
   2.321124115322627E-05   2.344451800504712E-05   2.368013932820563E-05
   2.391812868503047E-05   2.415850987465567E-05   2.440130693540048E-05
   2.464654414717332E-05   2.489424603389973E-05   2.514443736597481E-05
   2.539714316274027E-05   2.565238869498634E-05   2.591019948747897E-05
   2.617060132151227E-05   2.643362023748662E-05   2.669928253751280E-05
   2.696761478804221E-05   2.723864382252351E-05   2.751239674408603E-05
   2.778890092825001E-05   2.806818402566431E-05   2.835027396487143E-05
   2.863519895510032E-05   2.892298748908747E-05   2.921366834592609E-05
   2.950727059394412E-05   2.980382359361101E-05   3.010335700047389E-05
   3.040590076812300E-05   3.071148515118727E-05   3.102014070835967E-05
   3.133189830545308E-05   3.164678911848704E-05   3.196484463680525E-05
   3.228609666622461E-05   3.261057733221579E-05   3.293831908311574E-05
   3.326935469337269E-05   3.360371726682356E-05   3.394144024000427E-05
   3.428255738549361E-05   3.462710281529040E-05   3.497511098422472E-05
   3.532661669340352E-05   3.568165509369058E-05   3.604026168922183E-05
   3.640247234095566E-05   3.676832327025907E-05   3.713785106252987E-05
   3.751109267085524E-05   3.788808541970703E-05   3.826886700867431E-05
   3.865347551623333E-05   3.904194940355526E-05   3.943432751835262E-05
   3.983064909876389E-05   4.023095377727733E-05   4.063528158469440E-05
   4.104367295413279E-05   4.145616872506976E-05   4.187281014742620E-05
   4.229363888569147E-05   4.271869702309014E-05   4.314802706579018E-05
   4.358167194715356E-05   4.401967503202985E-05   4.446208012109252E-05
   4.490893145521915E-05   4.536027371991555E-05   4.581615204978433E-05
   4.627661203303830E-05   4.674169971605958E-05   4.721146160800398E-05
   4.768594468545220E-05   4.816519639710738E-05   4.864926466854007E-05
   4.913819790698080E-05   4.963204500616091E-05   5.013085535120176E-05
   5.063467882355363E-05   5.114356580598352E-05   5.165756718761379E-05
   5.217673436901093E-05   5.270111926732573E-05   5.323077432148502E-05
   5.376575249743562E-05   5.430610729344086E-05   5.485189274543074E-05
   5.540316343240517E-05   5.595997448189230E-05   5.652238157546109E-05
   5.709044095428956E-05   5.766420942478899E-05   5.824374436428456E-05
   5.882910372675324E-05   5.942034604861895E-05   6.001753045460669E-05
   6.062071666365462E-05   6.122996499488635E-05   6.184533637364271E-05
   6.246689233757438E-05   6.309469504279573E-05   6.372880727010050E-05
   6.436929243123974E-05   6.501621457526342E-05   6.566963839492492E-05
   6.632962923315081E-05   6.699625308957486E-05   6.766957662713830E-05
   6.834966717875593E-05   6.903659275404976E-05   6.973042204614960E-05
   7.043122443856301E-05   7.113907001211310E-05   7.185402955194715E-05
   7.257617455461493E-05   7.330557723521856E-05   7.404231053463388E-05
   7.478644812680479E-05   7.553806442611068E-05   7.629723459480774E-05
   7.706403455054558E-05   7.783854097395865E-05   7.862083131633477E-05
   7.941098380736012E-05   8.020907746294222E-05   8.101519209311176E-05
   8.182940831000356E-05   8.265180753591768E-05   8.348247201146222E-05
   8.432148480377678E-05   8.516892981483985E-05   8.602489178985876E-05
   8.688945632574430E-05   8.776270987967054E-05   8.864473977772065E-05
   8.953563422361932E-05   9.043548230755372E-05   9.134437401508194E-05
   9.226240023613222E-05   9.318965277409172E-05   9.412622435498691E-05
   9.507220863675642E-05   9.602770021861667E-05   9.699279465052225E-05
   9.796758844272038E-05   9.895217907540279E-05   9.994666500845308E-05
   1.009511456912934E-04   1.019657215728291E-04   1.029904941114937E-04
   1.040255657853952E-04   1.050710401025637E-04   1.061270216113017E-04
   1.071936159106405E-04   1.082709296608985E-04   1.093590705943488E-04
   1.104581475259913E-04   1.115682703644351E-04   1.126895501228893E-04
   1.138220989302642E-04   1.149660300423840E-04   1.161214578533135E-04
   1.172884979067965E-04   1.184672669078109E-04   1.196578827342391E-04
   1.208604644486559E-04   1.220751323102351E-04   1.233020077867748E-04
   1.245412135668454E-04   1.257928735720572E-04   1.270571129694541E-04
   1.283340581840291E-04   1.296238369113679E-04   1.309265781304181E-04
   1.322424121163871E-04   1.335714704537702E-04   1.349138860495087E-04
   1.362697931462806E-04   1.376393273359259E-04   1.390226255730044E-04
   1.404198261884928E-04   1.418310689036169E-04   1.432564948438244E-04
   1.446962465528971E-04   1.461504680072058E-04   1.476193046301075E-04
   1.491029033064889E-04   1.506014123974537E-04   1.521149817551597E-04
   1.536437627378042E-04   1.551879082247594E-04   1.567475726318607E-04
   1.583229119268487E-04   1.599140836449656E-04   1.615212469047091E-04
   1.631445624237447E-04   1.647841925349768E-04   1.664403012027830E-04
   1.681130540394102E-04   1.698026183215360E-04   1.715091630069966E-04
   1.732328587516829E-04   1.749738779266053E-04   1.767323946351327E-04
   1.785085847304008E-04   1.803026258328997E-04   1.821146973482345E-04
   1.839449804850670E-04   1.857936582732358E-04   1.876609155820608E-04
   1.895469391388285E-04   1.914519175474665E-04   1.933760413074028E-04
   1.953195028326172E-04   1.972824964708816E-04   1.992652185231956E-04
   2.012678672634170E-04   2.032906429580884E-04   2.053337478864653E-04
   2.073973863607427E-04   2.094817647464881E-04   2.115870914832766E-04
   2.137135771055366E-04   2.158614342636025E-04   2.180308777449798E-04
   2.202221244958246E-04   2.224353936426383E-04   2.246709065141794E-04
   2.269288866635986E-04   2.292095598907920E-04   2.315131542649830E-04
   2.338399001475288E-04   2.361900302149566E-04   2.385637794822315E-04
   2.409613853262588E-04   2.433830875096202E-04   2.458291282045527E-04
   2.482997520171638E-04   2.507952060118937E-04   2.533157397362215E-04
   2.558616052456202E-04   2.584330571287621E-04   2.610303525329784E-04
   2.636537511899743E-04   2.663035154418012E-04   2.689799102670927E-04
   2.716832033075615E-04   2.744136648947645E-04   2.771715680771357E-04
   2.799571886472917E-04   2.827708051696109E-04   2.856126990080904E-04
   2.884831543544819E-04   2.913824582567124E-04   2.943109006475880E-04
   2.972687743737881E-04   3.002563752251505E-04   3.032740019642499E-04
   3.063219563562751E-04   3.094005431992048E-04   3.125100703542891E-04
   3.156508487768347E-04   3.188231925473017E-04   3.220274189027098E-04
   3.252638482683654E-04   3.285328042899019E-04   3.318346138656456E-04
   3.351696071793059E-04   3.385381177329929E-04   3.419404823805692E-04
   3.453770413613348E-04   3.488481383340521E-04   3.523541204113102E-04
   3.558953381942388E-04   3.594721458075674E-04   3.630849009350381E-04
   3.667339648551738E-04   3.704197024774076E-04   3.741424823785733E-04
   3.779026768397637E-04   3.817006618835575E-04   3.855368173116247E-04
   3.894115267427049E-04   3.933251776509702E-04   3.972781614047725E-04
   4.012708733057815E-04   4.053037126285146E-04   4.093770826602650E-04
   4.134913907414299E-04   4.176470483062462E-04   4.218444709239334E-04
   4.260840783402518E-04   4.303662945194749E-04   4.346915476867899E-04
   4.390602703711176E-04   4.434728994483672E-04   4.479298761851241E-04
   4.524316462827752E-04   4.569786599220822E-04   4.615713718081983E-04
   4.662102412161397E-04   4.708957320367120E-04   4.756283128229025E-04
   4.804084568367335E-04   4.852366420965904E-04   4.901133514250217E-04
   4.950390724970246E-04   5.000142978888112E-04   5.050395251270670E-04
   5.101152567387028E-04   5.152420003011100E-04   5.204202684929170E-04
   5.256505791452588E-04   5.309334552935582E-04   5.362694252298331E-04
   5.416590225555235E-04   5.471027862348541E-04   5.526012606487282E-04
   5.581549956491696E-04   5.637645466143067E-04   5.694304745039107E-04
   5.751533459154924E-04   5.809337331409613E-04   5.867722142238573E-04
   5.926693730171543E-04   5.986257992416462E-04   6.046420885449183E-04
   6.107188425609149E-04   6.168566689701016E-04   6.230561815602350E-04
   6.293180002877389E-04   6.356427513397050E-04   6.420310671965093E-04
   6.484835866950614E-04   6.550009550926872E-04   6.615838241316582E-04
   6.682328521043641E-04   6.749487039191435E-04   6.817320511667735E-04
   6.885835721876320E-04   6.955039521395309E-04   7.024938830662328E-04
   7.095540639666544E-04   7.166852008647695E-04   7.238880068802108E-04
   7.311632022995822E-04   7.385115146484888E-04   7.459336787642880E-04
   7.534304368695771E-04   7.610025386464139E-04   7.686507413112869E-04
   7.763758096908349E-04   7.841785162983339E-04   7.920596414109470E-04
   8.000199731477538E-04   8.080603075485602E-04   8.161814486535073E-04
   8.243842085834732E-04   8.326694076212873E-04   8.410378742937563E-04
   8.494904454545218E-04   8.580279663677440E-04   8.666512907926293E-04
   8.753612810688050E-04   8.841588082025577E-04   8.930447519539321E-04
   9.020200009247091E-04   9.110854526472637E-04   9.202420136743233E-04
   9.294905996696214E-04   9.388321354994644E-04   9.482675553252211E-04
   9.577978026967349E-04   9.674238306466859E-04   9.771466017858908E-04
   9.869670883995668E-04   9.968862725445570E-04   1.006905146147543E-03
   1.017024711104234E-03   1.027245979379560E-03   1.037569973108864E-03
   1.047997724700124E-03   1.058530276937188E-03   1.069168683084058E-03
   1.079914006990213E-03   1.090767323196998E-03   1.101729717045078E-03
   1.112802284782975E-03   1.123986133676688E-03   1.135282382120426E-03
   1.146692159748449E-03   1.158216607548027E-03   1.169856877973542E-03
   1.181614135061739E-03   1.193489554548124E-03   1.205484323984542E-03
   1.217599642857933E-03   1.229836722710278E-03   1.242196787259762E-03
   1.254681072523139E-03   1.267290826939341E-03   1.280027311494314E-03
   1.292891799847130E-03   1.305885578457344E-03   1.319009946713647E-03
   1.332266217063798E-03   1.345655715145882E-03   1.359179779920863E-03
   1.372839763806492E-03   1.386637032812537E-03   1.400572966677397E-03
   1.414648959006074E-03   1.428866417409530E-03   1.443226763645452E-03
   1.457731433760432E-03   1.472381878233568E-03   1.487179562121517E-03
   1.502125965204998E-03   1.517222582136775E-03   1.532470922591122E-03
   1.547872511414792E-03   1.563428888779503E-03   1.579141610335951E-03
   1.595012247369390E-03   1.611042386956746E-03   1.627233632125339E-03
   1.643587602013176E-03   1.660105932030875E-03   1.676790274025204E-03
   1.693642296444266E-03   1.710663684504345E-03   1.727856140358432E-03
   1.745221383266439E-03   1.762761149767131E-03   1.780477193851771E-03
   1.798371287139531E-03   1.816445219054654E-03   1.834700797005392E-03
   1.853139846564752E-03   1.871764211653057E-03   1.890575754722336E-03
   1.909576356942574E-03   1.928767918389824E-03   1.948152358236224E-03
   1.967731614941914E-03   1.987507646448879E-03   2.007482430376753E-03
   2.027657964220571E-03   2.048036265550531E-03   2.068619372213750E-03
   2.089409342538046E-03   2.110408255537774E-03   2.131618211121736E-03
   2.153041330303165E-03   2.174679755411832E-03   2.196535650308278E-03
   2.218611200600208E-03   2.240908613861046E-03   2.263430119850703E-03
   2.286177970738540E-03   2.309154441328607E-03   2.332361829287107E-03
   2.355802455372180E-03   2.379478663665963E-03   2.403392821809019E-03
   2.427547321237089E-03   2.451944577420249E-03   2.476587030104441E-03
   2.501477143555474E-03   2.526617406805433E-03   2.552010333901596E-03
   2.577658464157831E-03   2.603564362408536E-03   2.629730619265127E-03
   2.656159851375094E-03   2.682854701683674E-03   2.709817839698140E-03
   2.737051961754766E-03   2.764559791288450E-03   2.792344079105074E-03
   2.820407603656567E-03   2.848753171318773E-03   2.877383616672079E-03
   2.906301802784883E-03   2.935510621499890E-03   2.965012993723313E-03
   2.994811869716961E-03   3.024910229393268E-03   3.055311082613279E-03
   3.086017469487652E-03   3.117032460680664E-03   3.148359157717282E-03
   3.180000693293311E-03   3.211960231588678E-03   3.244240968583847E-03
   3.276846132379420E-03   3.309778983518942E-03   3.343042815314975E-03
   3.376640954178417E-03   3.410576759951154E-03   3.444853626242046E-03
   3.479474980766280E-03   3.514444285688163E-03   3.549765037967328E-03
   3.585440769708440E-03   3.621475048514398E-03   3.657871477843112E-03
   3.694633697367847E-03   3.731765383341194E-03   3.769270248962687E-03
   3.807152044750145E-03   3.845414558914715E-03   3.884061617739703E-03
   3.923097085963190E-03   3.962524867164532E-03   4.002348904154706E-03
   4.042573179370600E-03   4.083201715273250E-03   4.124238574750107E-03
   4.165687861521316E-03   4.207553720550099E-03   4.249840338457240E-03
   4.292551943939771E-03   4.335692808193835E-03   4.379267245341808E-03
   4.423279612863721E-03   4.467734312032994E-03   4.512635788356595E-03
   4.557988532019575E-03   4.603797078334097E-03   4.650066008192958E-03
   4.696799948527707E-03   4.744003572771321E-03   4.791681601325566E-03
   4.839838802033021E-03   4.888479990653892E-03   4.937610031347574E-03
   4.987233837159085E-03   5.037356370510350E-03   5.087982643696476E-03
   5.139117719386971E-03   5.190766711132022E-03   5.242934783873836E-03
   5.295627154463163E-03   5.348849092180975E-03   5.402605919265397E-03
   5.456903011443929E-03   5.511745798471039E-03   5.567139764671133E-03
   5.623090449486993E-03   5.679603448033731E-03   5.736684411658286E-03
   5.794339048504593E-03   5.852573124084381E-03   5.911392461853745E-03
   5.970802943795465E-03   6.030810511007251E-03   6.091421164295829E-03
   6.152640964777045E-03   6.214476034481949E-03   6.276932556969051E-03
   6.340016777942641E-03   6.403735005877398E-03   6.468093612649201E-03
   6.533099034172363E-03   6.598757771043211E-03   6.665076389190153E-03
   6.732061520530256E-03   6.799719863632482E-03   6.868058184387523E-03
   6.937083316684411E-03   7.006802163093882E-03   7.077221695558684E-03
   7.148348956090747E-03   7.220191057475396E-03   7.292755183982645E-03
   7.366048592085601E-03   7.440078611186161E-03   7.514852644347925E-03
   7.590378169036530E-03   7.666662737867366E-03   7.743713979360896E-03
   7.821539598705480E-03   7.900147378527912E-03   7.979545179671669E-03
   8.059740941983034E-03   8.140742685105073E-03   8.222558509279602E-03
   8.305196596157209E-03   8.388665209615452E-03   8.472972696585233E-03
   8.558127487885514E-03   8.644138099066374E-03   8.731013131260611E-03
   8.818761272043844E-03   8.907391296303281E-03   8.996912067115191E-03
   9.087332536631264E-03   9.178661746973803E-03   9.270908831139950E-03
   9.364083013915002E-03   9.458193612794865E-03   9.553250038917863E-03
   9.649261798005820E-03   9.746238491314665E-03   9.844189816594526E-03
   9.943125569059564E-03   1.004305564236747E-02   1.014399002960887E-02
   1.024593882430657E-02   1.034891222142502E-02   1.045292051838972E-02
   1.055797411611708E-02   1.066408352005437E-02   1.077125934123044E-02
   1.087951229731671E-02   1.098885321369901E-02   1.109929302456008E-02
   1.121084277397305E-02   1.132351361700581E-02   1.143731682083658E-02
   1.155226376588055E-02   1.166836594692803E-02   1.178563497429387E-02
   1.190408257497854E-02   1.202372059384081E-02   1.214456099478226E-02
   1.226661586194369E-02   1.238989740091353E-02   1.251441793994842E-02
   1.264018993120601E-02   1.276722595199024E-02   1.289553870600907E-02
   1.302514102464483E-02   1.315604586823736E-02   1.328826632738012E-02
   1.342181562422921E-02   1.355670711382562E-02   1.369295428543069E-02
   1.383057076387514E-02   1.396957031092150E-02   1.410996682664030E-02
   1.425177435080010E-02   1.439500706427150E-02   1.453967929044520E-02
   1.468580549666441E-02   1.483340029567147E-02   1.498247844706932E-02
   1.513305485879731E-02   1.528514458862211E-02   1.543876284564343E-02
   1.559392499181499E-02   1.575064654348071E-02   1.590894317292636E-02
   1.606883070994682E-02   1.623032514342899E-02   1.639344262295082E-02
   1.655819946039620E-02   1.672461213158615E-02   1.689269727792650E-02
   1.706247170807195E-02   1.723395239960696E-02   1.740715650074361E-02
   1.758210133203634E-02   1.775880438811408E-02   1.793728333942967E-02
   1.811755603402700E-02   1.829964049932575E-02   1.848355494392421E-02
   1.866931775942004E-02   1.885694752224964E-02   1.904646299554563E-02
   1.923788313101329E-02   1.943122707082566E-02   1.962651414953787E-02
   1.982376389602051E-02   2.002299603541260E-02   2.022423049109417E-02
   2.042748738667839E-02   2.063278704802423E-02   2.084015000526893E-02
   2.104959699488101E-02   2.126114896173396E-02   2.147482706120077E-02
   2.169065266126944E-02   2.190864734467989E-02   2.212883291108203E-02
   2.235123137921604E-02   2.257586498911406E-02   2.280275620432427E-02
   2.303192771415727E-02   2.326340243595503E-02   2.349720351738261E-02
   2.373335433874305E-02   2.397187851531517E-02   2.421279989971547E-02
   2.445614258428313E-02   2.470193090348941E-02   2.495018943637104E-02
   2.520094300898821E-02   2.545421669690714E-02   2.571003582770767E-02
   2.596842598351612E-02   2.622941300356330E-02   2.649302298676876E-02
   2.675928229435048E-02   2.702821755246112E-02   2.729985565485059E-02
   2.757422376555550E-02   2.785134932161556E-02   2.813126003581738E-02
   2.841398389946551E-02   2.869954918518200E-02   2.898798444973337E-02
   2.927931853688645E-02   2.957358058029273E-02   2.987080000640178E-02
   3.017100653740388E-02   3.047423019420236E-02   3.078050129941548E-02
   3.108985048040906E-02   3.140230867235896E-02   3.171790712134478E-02
   3.203667738747441E-02   3.235865134804011E-02   3.268386120070625E-02
   3.301233946672916E-02   3.334411899420905E-02   3.367923296137523E-02
   3.401771487990367E-02   3.435959859826828E-02   3.470491830512581E-02
   3.505370853273472E-02   3.540600416040843E-02   3.576184041800327E-02
   3.612125288944162E-02   3.648427751626999E-02   3.685095060125365E-02
   3.722130881200666E-02   3.759538918465874E-02   3.797322912755888E-02
   3.835486642501623E-02   3.874033924107858E-02   3.912968612334883E-02
   3.952294600683953E-02   3.992015821786682E-02   4.032136247798280E-02
   4.072659890794782E-02   4.113590803174258E-02   4.154933078062056E-02
   4.196690849720115E-02   4.238868293960409E-02   4.281469628562492E-02
   4.324499113695335E-02   4.367961052343308E-02   4.411859790736496E-02
   4.456199718785320E-02   4.500985270519534E-02   4.546220924531634E-02
   4.591911204424717E-02   4.638060679264856E-02   4.684673964037976E-02
   4.731755720111409E-02   4.779310655699995E-02   4.827343526336925E-02
   4.875859135349286E-02   4.924862334338413E-02   4.974358023665040E-02
   5.024351152939353E-02   5.074846721515925E-02   5.125849778993701E-02
   5.177365425720933E-02   5.229398813305221E-02   5.281955145128688E-02
   5.335039676868311E-02   5.388657717021503E-02   5.442814627436969E-02
   5.497515823850863E-02   5.552766776428422E-02   5.608573010310943E-02
   5.664940106168322E-02   5.721873700757117E-02   5.779379487484232E-02
   5.837463216976261E-02   5.896130697654556E-02   5.955387796316086E-02
   6.015240438720076E-02   6.075694610180657E-02   6.136756356165350E-02
   6.198431782899641E-02   6.260727057977598E-02   6.323648410978644E-02
   6.387202134090511E-02   6.451394582738487E-02   6.516232176220904E-02
   6.581721398351154E-02   6.647868798106027E-02   6.714680990280618E-02
   6.782164656149824E-02   6.850326544136467E-02   6.919173470486148E-02
   6.988712319948889E-02   7.058950046467558E-02   7.129893673873351E-02
   7.201550296588129E-02   7.273927080333878E-02   7.347031262849286E-02
   7.420870154613526E-02   7.495451139577307E-02   7.570781675901275E-02
   7.646869296701853E-02   7.723721610804499E-02   7.801346303504683E-02
   7.879751137336360E-02   7.958943952848252E-02   8.038932669387903E-02
   8.119725285893628E-02   8.201329881694402E-02   8.283754617317823E-02
   8.367007735306115E-02   8.451097561040466E-02   8.536032503573525E-02
   8.621821056470326E-02   8.708471798657651E-02   8.795993395281924E-02
   8.884394598575743E-02   8.973684248733123E-02   9.063871274793457E-02
   9.154964695534520E-02   9.246973620374301E-02   9.339907250281955E-02
   9.433774878697919E-02   9.528585892463258E-02   9.624349772758359E-02
   9.721076096051053E-02   9.818774535054293E-02   9.917454859693361E-02
   1.001712693808297E-01   1.011780073751402E-01   1.021948632545036E-01
   1.032219387053550E-01   1.042593364360956E-01   1.053071601873628E-01
   1.063655147424052E-01   1.074345059375599E-01   1.085142406728374E-01
   1.096048269226110E-01   1.107063737464146E-01   1.118189912998483E-01
   1.129427908455949E-01   1.140778847645454E-01   1.152243865670377E-01
   1.163824109042072E-01   1.175520735794527E-01   1.187334915600167E-01
   1.199267829886814E-01   1.211320671955844E-01   1.223494647101507E-01
   1.235790972731462E-01   1.248210878488520E-01   1.260755606373608E-01
   1.273426410869964E-01   1.286224559068599E-01   1.299151330794998E-01
   1.312208018737107E-01   1.325395928574600E-01   1.338716379109450E-01
   1.352170702397812E-01   1.365760243883229E-01   1.379486362531170E-01
   1.393350430964939E-01   1.407353835602934E-01   1.421497976797288E-01
   1.435784268973907E-01   1.450214140773915E-01   1.464789035196515E-01
   1.479510409743300E-01   1.494379736563986E-01   1.509398502603649E-01
   1.524568209751408E-01   1.539890374990620E-01   1.555366530550578E-01
   1.570998224059734E-01   1.586787018700465E-01   1.602734493365393E-01
   1.618842242815277E-01   1.635111877838480E-01   1.651545025412064E-01
   1.668143328864482E-01   1.684908448039910E-01   1.701842059464236E-01
   1.718945856512716E-01   1.736221549579307E-01   1.753670866247715E-01
   1.771295551464142E-01   1.789097367711800E-01   1.807078095187148E-01
   1.825239531977919E-01   1.843583494242925E-01   1.862111816393681E-01
   1.880826351277841E-01   1.899728970364492E-01   1.918821563931289E-01
   1.938106041253503E-01   1.957584330794936E-01   1.977258380400774E-01
   1.997130157492373E-01   2.017201649264002E-01   2.037474862881564E-01
   2.057951825683315E-01   2.078634585382605E-01   2.099525210272630E-01
   2.120625789433292E-01   2.141938432940092E-01   2.163465272075141E-01
   2.185208459540290E-01   2.207170169672407E-01   2.229352598660806E-01
   2.251757964766875E-01   2.274388508545888E-01   2.297246493071085E-01
   2.320334204159968E-01   2.343653950602886E-01   2.367208064393915E-01
   2.390998900964063E-01   2.415028839416814E-01   2.439300282766041E-01
   2.463815658176298E-01   2.488577417205558E-01   2.513588036050361E-01
   2.538850015793432E-01   2.564365882653799E-01   2.590138188239409E-01
   2.616169509802299E-01   2.642462450496317E-01   2.669019639637449E-01
   2.695843732966732E-01   2.722937412915853E-01   2.750303388875390E-01
   2.777944397465741E-01   2.805863202810799E-01   2.834062596814366E-01
   2.862545399439341E-01   2.891314458989728E-01   2.920372652395444E-01
   2.949722885500053E-01   2.979368093351323E-01   3.009311240494742E-01