<UPF version="2.0.1">
  <PP_INFO>
    Generated using "atomic" code by A. Dal Corso  v.6.8
    Author: D.C.
    Generation date:  7Nov2024
    Pseudopotential type: USPP
    Element: Yb
    Functional: PBE
    Suggested minimum cutoff for wavefunctions:  40. Ry
    Suggested minimum cutoff for charge density: 162. Ry
    The Pseudo was generated with a Scalar-Relativistic Calculation
    L component and cutoff radius for Local Potential:  2   2.1000
    Pseudopotential contains additional information for GIPAW reconstruction.
    Valence configuration: 
    nl pn  l   occ       Rcut    Rcut US       E pseu
    4F  4  3 14.00      1.100      2.000    -0.221372
    5F  5  3  0.00      1.100      2.000     0.000356
    5P  2  1  6.00      1.100      1.800    -2.015431
    6P  3  1  0.00      1.100      1.800    -0.081281
    5S  1  0  2.00      1.100      1.600    -4.036796
    6S  2  0  2.00      1.100      1.600    -0.288005
    5D  3  2  0.00      4.240      4.664    -0.048966
    Generation configuration:
    4F  4  3 14.00      1.100      2.000    -0.221366
    5F  5  3  0.00      1.100      2.000     0.500000
    5P  2  1  6.00      1.100      1.800    -2.015429
    6P  3  1  0.00      1.100      1.800     0.500000
    5S  1  0  2.00      1.100      1.600    -4.036795
    6S  2  0  2.00      1.100      1.600    -0.288006
    5D  3  2  0.00      2.100      2.100    -0.048942
    Pseudization used: troullier-martins
    <PP_INPUTFILE>
@input
title = 'Yb'
prefix = 'yb'
verbosity = 'high'
zed = 70
dft = 'pbe'
rel = 1
iswitch = 3
beta = 0.2
xmin = -8.0, dx = 0.01
nld = 4, rlderiv = 3.4, eminld  = -5.0, emaxld  = 5.0, deld = 0.002
/
16
1S  1  0   2.0
2S  2  0   2.0
2P  2  1   6.0
3S  3  0   2.0
3P  3  1   6.0
3D  3  2  10.0
4S  4  0   2.0
4P  4  1   6.0
4D  4  2  10.0
5S  5  0   2.0
5P  5  1   6.0
5D  5  2   0.0
4F  4  3  14.0
6S  6  0   2.0
6P  6  1   0.0
5F  5  3   0.0
@inputp
pseudotype = 3
lloc = 2
rcloc = 2.1
tm = .true.
nlcc = .true.
new_core_ps = .true.
rcore = 1.1
file_core = 'yb.core'
file_pseudopw = 'Yb.pbe-rrkjus-semi-gipaw-dc.UPF'
lgipaw_reconstruction = .true.
!upf_v1_format = .true.
author = 'D.C.'
/
7
4F  4  3 14.0  0.00  1.10  2.00
5F  5  3  0.0  0.50  1.10  2.00
5P  2  1  6.0  0.00  1.10  1.80
6P  3  1  0.0  0.50  1.10  1.80
5S  1  0  2.0  0.00  1.10  1.60
6S  2  0  2.0  0.00  1.10  1.60
5D  3  2  0.0  0.00  2.10  2.10
@test
ecutmin = 20
ecutmax = 60
decut   = 5
/
7
4F  4  3 14.0  0.00  1.10  2.00
5F  5  3  0.0  0.50  1.10  2.00
5P  2  1  6.0  0.00  1.10  1.80
6P  3  1  0.0  0.50  1.10  1.80
5S  1  0  2.0  0.00  1.10  1.60
6S  2  0  2.0  0.00  1.10  1.60
5D  3  2  0.0  0.00  2.10  2.10
    </PP_INPUTFILE>
  </PP_INFO>
    <!-- END OF HUMAN READABLE SECTION -->
  <PP_HEADER generated="Generated using 'atomic' code by A. Dal Corso  v.6.8" author="D.C." date=" 7Nov2024" comment="" element="Yb" pseudo_type="USPP" relativistic="scalar" is_ultrasoft="true" is_paw="false" is_coulomb="false" has_so="false" has_wfc="false" has_gipaw="true" paw_as_gipaw="false" core_correction="true" functional="PBE" z_valence="24.0000000000000" total_psenergy="-498.462209442193" wfc_cutoff="40.4709202994335" rho_cutoff="161.883681197734" l_max="3" l_max_rho="6" l_local="2" mesh_size="1687" number_of_wfc="7" number_of_proj="6"/>
  <PP_MESH mesh="1687" dx="1.000000000000000E-002" xmin="-8.00000000000000" rmax="100.000000000000" zmesh="70.0000000000000">
    <PP_R>
   4.792323255750170E-06   4.840486905191802E-06   4.889134607357706E-06
   4.938271227058642E-06   4.987901677997520E-06   5.038030923260797E-06
   5.088663975814772E-06   5.139805899006901E-06   5.191461807072112E-06
   5.243636865644263E-06   5.296336292272689E-06   5.349565356943976E-06
   5.403329382608939E-06   5.457633745714953E-06   5.512483876743580E-06
   5.567885260753640E-06   5.623843437929690E-06   5.680364004136084E-06
   5.737452611476544E-06   5.795114968859383E-06   5.853356842568383E-06
   5.912184056839452E-06   5.971602494443042E-06   6.031618097272434E-06
   6.092236866937912E-06   6.153464865366965E-06   6.215308215410459E-06
   6.277773101454935E-06   6.340865770041057E-06   6.404592530488250E-06
   6.468959755525670E-06   6.533973881929461E-06   6.599641411166447E-06
   6.665968910044263E-06   6.732963011368077E-06   6.800630414603847E-06
   6.868977886548297E-06   6.938012262005560E-06   7.007740444470722E-06
   7.078169406820133E-06   7.149306192008726E-06   7.221157913774290E-06
   7.293731757348883E-06   7.367034980177340E-06   7.441074912643037E-06
   7.515858958800911E-06   7.591394597117899E-06   7.667689381220784E-06
   7.744750940651558E-06   7.822586981630372E-06   7.901205287826195E-06
   7.980613721135159E-06   8.060820222466768E-06   8.141832812538006E-06
   8.223659592675374E-06   8.306308745625079E-06   8.389788536371304E-06
   8.474107312962672E-06   8.559273507347115E-06   8.645295636215045E-06
   8.732182301851033E-06   8.819942192994056E-06   8.908584085706350E-06
   8.998116844251057E-06   9.088549421978645E-06   9.179890862222255E-06
   9.272150299202016E-06   9.365336958938512E-06   9.459460160175377E-06
   9.554529315311177E-06   9.650553931340634E-06   9.747543610805379E-06
   9.845508052754187E-06   9.944457053712895E-06   1.004440050866404E-05
   1.014534841203641E-05   1.024731085870448E-05   1.035029804499787E-05
   1.045432026972104E-05   1.055938793518314E-05   1.066551154823827E-05
   1.077270172133620E-05   1.088096917358353E-05   1.099032473181573E-05
   1.110077933167974E-05   1.121234401872759E-05   1.132502994952099E-05
   1.143884839274688E-05   1.155381073034445E-05   1.166992845864326E-05
   1.178721318951292E-05   1.190567665152423E-05   1.202533069112213E-05
   1.214618727381028E-05   1.226825848534768E-05   1.239155653295718E-05
   1.251609374654631E-05   1.264188257994021E-05   1.276893561212705E-05
   1.289726554851591E-05   1.302688522220738E-05   1.315780759527684E-05
   1.329004576007070E-05   1.342361294051566E-05   1.355852249344104E-05
   1.369478790991457E-05   1.383242281659147E-05   1.397144097707707E-05
   1.411185629330328E-05   1.425368280691874E-05   1.439693470069301E-05
   1.454162629993484E-05   1.468777207392471E-05   1.483538663736183E-05
   1.498448475182556E-05   1.513508132725157E-05   1.528719142342292E-05
   1.544083025147598E-05   1.559601317542158E-05   1.575275571368146E-05
   1.591107354064005E-05   1.607098248821196E-05   1.623249854742523E-05
   1.639563787002038E-05   1.656041677006559E-05   1.672685172558821E-05
   1.689495938022247E-05   1.706475654487393E-05   1.723626019940058E-05
   1.740948749431075E-05   1.758445575247830E-05   1.776118247087488E-05
   1.793968532231956E-05   1.811998215724627E-05   1.830209100548873E-05
   1.848603007808354E-05   1.867181776909125E-05   1.885947265743575E-05
   1.904901350876227E-05   1.924045927731392E-05   1.943382910782706E-05
   1.962914233744588E-05   1.982641849765613E-05   2.002567731623821E-05
   2.022693871924003E-05   2.043022283296964E-05   2.063554998600776E-05
   2.084294071124084E-05   2.105241574791423E-05   2.126399604370614E-05
   2.147770275682246E-05   2.169355725811262E-05   2.191158113320661E-05
   2.213179618467366E-05   2.235422443420238E-05   2.257888812480310E-05
   2.280580972303212E-05   2.303501192123834E-05   2.326651763983258E-05
   2.350035002957964E-05   2.373653247391334E-05   2.397508859127497E-05
   2.421604223747501E-05   2.445941750807890E-05   2.470523874081653E-05
   2.495353051801600E-05   2.520431766906193E-05   2.545762527287845E-05
   2.571347866043702E-05   2.597190341728959E-05   2.623292538612725E-05
   2.649657066936433E-05   2.676286563174890E-05   2.703183690299914E-05
   2.730351138046625E-05   2.757791623182442E-05   2.785507889778744E-05
   2.813502709485288E-05   2.841778881807376E-05   2.870339234385800E-05
   2.899186623279620E-05   2.928323933251768E-05   2.957754078057515E-05
   2.987480000735872E-05   3.017504673903877E-05   3.047831100053869E-05
   3.078462311853735E-05   3.109401372450179E-05   3.140651375775045E-05
   3.172215446854708E-05   3.204096742122576E-05   3.236298449734745E-05
   3.268823789888813E-05   3.301676015145899E-05   3.334858410755905E-05
   3.368374294986047E-05   3.402227019452673E-05   3.436419969456442E-05
   3.470956564320854E-05   3.505840257734167E-05   3.541074538094798E-05
   3.576662928860143E-05   3.612608988898937E-05   3.648916312847141E-05
   3.685588531467400E-05   3.722629312012140E-05   3.760042358590286E-05
   3.797831412537667E-05   3.836000252791172E-05   3.874552696266634E-05
   3.913492598240526E-05   3.952823852735498E-05   3.992550392909777E-05
   4.032676191450480E-05   4.073205260970907E-05   4.114141654411776E-05
   4.155489465446549E-05   4.197252828890786E-05   4.239435921115635E-05
   4.282042960465469E-05   4.325078207679736E-05   4.368545966319011E-05
   4.412450583195388E-05   4.456796448807135E-05   4.501587997777773E-05
   4.546829709299524E-05   4.592526107581243E-05   4.638681762300837E-05
   4.685301289062248E-05   4.732389349856989E-05   4.779950653530393E-05
   4.827989956252451E-05   4.876512061993472E-05   4.925521823004467E-05
   4.975024140302376E-05   5.025023964160183E-05   5.075526294601941E-05
   5.126536181902782E-05   5.178058727093937E-05   5.230099082472869E-05
   5.282662452118475E-05   5.335754092411525E-05   5.389379312560293E-05
   5.443543475131481E-05   5.498251996586485E-05   5.553510347823044E-05
   5.609324054722321E-05   5.665698698701526E-05   5.722639917272029E-05
   5.780153404603141E-05   5.838244912091524E-05   5.896920248936337E-05
   5.956185282720159E-05   6.016045939995764E-05   6.076508206878751E-05
   6.137578129646204E-05   6.199261815341284E-05   6.261565432383965E-05
   6.324495211187874E-05   6.388057444783331E-05   6.452258489446667E-05
   6.517104765335846E-05   6.582602757132503E-05   6.648759014690388E-05
   6.715580153690400E-05   6.783072856302110E-05   6.851243871852030E-05
   6.920100017498525E-05   6.989648178913537E-05   7.059895310971168E-05
   7.130848438443167E-05   7.202514656701398E-05   7.274901132427422E-05
   7.348015104329119E-05   7.421863883864615E-05   7.496454855973406E-05
   7.571795479814861E-05   7.647893289514146E-05   7.724755894915657E-05
   7.802390982343970E-05   7.880806315372538E-05   7.960009735599997E-05
   8.040009163434379E-05   8.120812598885136E-05   8.202428122363146E-05
   8.284863895488773E-05   8.368128161908024E-05   8.452229248116939E-05
   8.537175564294204E-05   8.622975605142243E-05   8.709637950736625E-05
   8.797171267384138E-05   8.885584308489389E-05   8.974885915430168E-05
   9.065085018441585E-05   9.156190637509119E-05   9.248211883270579E-05
   9.341157957927242E-05   9.435038156164016E-05   9.529861866078964E-05
   9.625638570122096E-05   9.722377846043633E-05   9.820089367851783E-05
   9.918782906780163E-05   1.001846833226489E-04   1.011915561293161E-04
   1.022085481759226E-04   1.032357611625209E-04   1.042732978112655E-04
   1.053212618766859E-04   1.063797581560620E-04   1.074488924999038E-04
   1.085287718225367E-04   1.096195041127927E-04   1.107211984448100E-04
   1.118339649889396E-04   1.129579150227634E-04   1.140931609422215E-04
   1.152398162728516E-04   1.163979956811426E-04   1.175678149860004E-04
   1.187493911703303E-04   1.199428423927354E-04   1.211482879993324E-04
   1.223658485356866E-04   1.235956457588662E-04   1.248378026496184E-04
   1.260924434246675E-04   1.273596935491365E-04   1.286396797490937E-04
   1.299325300242261E-04   1.312383736606382E-04   1.325573412437821E-04
   1.338895646715151E-04   1.352351771672903E-04   1.365943132934786E-04
   1.379671089648253E-04   1.393537014620415E-04   1.407542294455323E-04
   1.421688329692633E-04   1.435976534947655E-04   1.450408339052823E-04
   1.464985185200575E-04   1.479708531087671E-04   1.494579849060971E-04
   1.509600626264665E-04   1.524772364788989E-04   1.540096581820442E-04
   1.555574809793493E-04   1.571208596543840E-04   1.586999505463187E-04
   1.602949115655583E-04   1.619059022095341E-04   1.635330835786530E-04
   1.651766183924077E-04   1.668366710056493E-04   1.685134074250224E-04
   1.702069953255664E-04   1.719176040674825E-04   1.736454047130705E-04
   1.753905700438348E-04   1.771532745777628E-04   1.789336945867769E-04
   1.807320081143615E-04   1.825483949933682E-04   1.843830368639982E-04
   1.862361171919677E-04   1.881078212868536E-04   1.899983363206252E-04
   1.919078513463614E-04   1.938365573171562E-04   1.957846471052135E-04
   1.977523155211359E-04   1.997397593334044E-04   2.017471772880566E-04
   2.037747701285608E-04   2.058227406158907E-04   2.078912935488018E-04
   2.099806357843112E-04   2.120909762583833E-04   2.142225260068245E-04
   2.163754981863856E-04   2.185501080960788E-04   2.207465731987073E-04
   2.229651131426119E-04   2.252059497836355E-04   2.274693072073098E-04
   2.297554117512633E-04   2.320644920278553E-04   2.343967789470380E-04
   2.367525057394465E-04   2.391319079797233E-04   2.415352236100754E-04
   2.439626929640685E-04   2.464145587906609E-04   2.488910662784788E-04
   2.513924630803342E-04   2.539189993379922E-04   2.564709277071838E-04
   2.590485033828725E-04   2.616519841247740E-04   2.642816302831320E-04
   2.669377048247540E-04   2.696204733593070E-04   2.723302041658805E-04
   2.750671682198132E-04   2.778316392197914E-04   2.806238936152186E-04
   2.834442106338613E-04   2.862928723097716E-04   2.891701635114911E-04
   2.920763719705380E-04   2.950117883101795E-04   2.979767060744960E-04
   3.009714217577346E-04   3.039962348339596E-04   3.070514477869989E-04
   3.101373661406939E-04   3.132542984894516E-04   3.164025565291047E-04
   3.195824550880800E-04   3.227943121588838E-04   3.260384489298996E-04
   3.293151898175083E-04   3.326248624985287E-04   3.359677979429872E-04
   3.393443304472142E-04   3.427547976672740E-04   3.461995406527303E-04
   3.496789038807524E-04   3.531932352905627E-04   3.567428863182309E-04
   3.603282119318175E-04   3.639495706668717E-04   3.676073246622848E-04
   3.713018396965051E-04   3.750334852241139E-04   3.788026344127740E-04
   3.826096641805454E-04   3.864549552335772E-04   3.903388921041795E-04
   3.942618631892755E-04   3.982242607892431E-04   4.022264811471442E-04
   4.062689244883503E-04   4.103519950605633E-04   4.144761011742436E-04
   4.186416552434392E-04   4.228490738270287E-04   4.270987776703760E-04
   4.313911917474072E-04   4.357267453031069E-04   4.401058718964441E-04
   4.445290094437268E-04   4.489966002623958E-04   4.535090911152563E-04
   4.580669332551540E-04   4.626705824701008E-04   4.673204991288545E-04
   4.720171482269562E-04   4.767609994332300E-04   4.815525271367488E-04
   4.863922104942763E-04   4.912805334781815E-04   4.962179849248364E-04
   5.012050585835006E-04   5.062422531656949E-04   5.113300723950757E-04
   5.164690250578059E-04   5.216596250534345E-04   5.269023914462860E-04
   5.321978485173687E-04   5.375465258168028E-04   5.429489582167762E-04
   5.484056859650296E-04   5.539172547388858E-04   5.594842156998152E-04
   5.651071255485535E-04   5.707865465807702E-04   5.765230467433021E-04
   5.823171996909459E-04   5.881695848438251E-04   5.940807874453311E-04
   6.000513986206507E-04   6.060820154358769E-04   6.121732409577171E-04
   6.183256843137989E-04   6.245399607535849E-04   6.308166917098980E-04
   6.371565048610645E-04   6.435600341936832E-04   6.500279200660225E-04
   6.565608092720601E-04   6.631593551061607E-04   6.698242174284073E-04
   6.765560627305846E-04   6.833555642028338E-04   6.902234018009682E-04
   6.971602623144712E-04   7.041668394351738E-04   7.112438338266278E-04
   7.183919531941695E-04   7.256119123556932E-04   7.329044333131305E-04
   7.402702453246547E-04   7.477100849776054E-04   7.552246962621484E-04
   7.628148306456729E-04   7.704812471479431E-04   7.782247124169980E-04
   7.860460008058180E-04   7.939458944497584E-04   8.019251833447675E-04
   8.099846654263844E-04   8.181251466495333E-04   8.263474410691212E-04
   8.346523709214404E-04   8.430407667063978E-04   8.515134672705620E-04
   8.600713198910511E-04   8.687151803602567E-04   8.774459130714303E-04
   8.862643911051184E-04   8.951714963164740E-04   9.041681194234390E-04
   9.132551600958224E-04   9.224335270452638E-04   9.317041381161078E-04
   9.410679203771853E-04   9.505258102145265E-04   9.600787534249965E-04
   9.697277053108782E-04   9.794736307753992E-04   9.893175044192286E-04
   9.992603106379336E-04   1.009303043720423E-03   1.019446707948373E-03
   1.029692317696658E-03   1.040040897534794E-03   1.050493482329387E-03
   1.061051117347627E-03   1.071714858361814E-03   1.082485771754935E-03
   1.093364934627307E-03   1.104353434904283E-03   1.115452371445045E-03
   1.126662854152499E-03   1.137986004084257E-03   1.149422953564750E-03
   1.160974846298453E-03   1.172642837484269E-03   1.184428093931038E-03
   1.196331794174228E-03   1.208355128593782E-03   1.220499299533161E-03
   1.232765521419579E-03   1.245155020885448E-03   1.257669036891037E-03
   1.270308820848376E-03   1.283075636746395E-03   1.295970761277322E-03
   1.308995483964355E-03   1.322151107290618E-03   1.335438946829407E-03
   1.348860331375747E-03   1.362416603079281E-03   1.376109117578472E-03
   1.389939244136182E-03   1.403908365776593E-03   1.418017879423510E-03
   1.432269196040053E-03   1.446663740769763E-03   1.461202953079106E-03
   1.475888286901432E-03   1.490721210782358E-03   1.505703208026633E-03
   1.520835776846469E-03   1.536120430511357E-03   1.551558697499400E-03
   1.567152121650163E-03   1.582902262319055E-03   1.598810694533271E-03
   1.614879009149284E-03   1.631108813011950E-03   1.647501729115179E-03
   1.664059396764243E-03   1.680783471739703E-03   1.697675626462995E-03
   1.714737550163667E-03   1.731970949048309E-03   1.749377546471171E-03
   1.766959083106498E-03   1.784717317122606E-03   1.802654024357696E-03
   1.820770998497440E-03   1.839070051254346E-03   1.857553012548942E-03
   1.876221730692758E-03   1.895078072573168E-03   1.914123923840071E-03
   1.933361189094467E-03   1.952791792078912E-03   1.972417675869898E-03
   1.992240803072157E-03   2.012263156014929E-03   2.032486736950193E-03
   2.052913568252900E-03   2.073545692623197E-03   2.094385173290717E-03
   2.115434094220892E-03   2.136694560323359E-03   2.158168697662442E-03
   2.179858653669770E-03   2.201766597359020E-03   2.223894719542820E-03
   2.246245233051824E-03   2.268820372956010E-03   2.291622396788182E-03
   2.314653584769725E-03   2.337916240038630E-03   2.361412688879808E-03
   2.385145280957724E-03   2.409116389551364E-03   2.433328411791565E-03
   2.457783768900722E-03   2.482484906434931E-03   2.507434294528526E-03
   2.532634428141113E-03   2.558087827307047E-03   2.583797037387459E-03
   2.609764629324780E-03   2.635993199899848E-03   2.662485371991572E-03
   2.689243794839240E-03   2.716271144307435E-03   2.743570123153632E-03
   2.771143461298457E-03   2.798993916098705E-03   2.827124272623066E-03
   2.855537343930637E-03   2.884235971352221E-03   2.913223024774478E-03
   2.942501402926906E-03   2.972074033671720E-03   3.001943874296640E-03
   3.032113911810616E-03   3.062587163242542E-03   3.093366675942957E-03
   3.124455527888784E-03   3.155856827991118E-03   3.187573716406140E-03
   3.219609364849124E-03   3.251966976911612E-03   3.284649788381770E-03
   3.317661067567983E-03   3.351004115625680E-03   3.384682266887455E-03
   3.418698889196494E-03   3.453057384243378E-03   3.487761187906244E-03
   3.522813770594380E-03   3.558218637595261E-03   3.593979329425093E-03
   3.630099422182861E-03   3.666582527907943E-03   3.703432294941309E-03
   3.740652408290372E-03   3.778246589997485E-03   3.816218599512147E-03
   3.854572234066957E-03   3.893311329057323E-03   3.932439758425033E-03
   3.971961435045630E-03   4.011880311119713E-03   4.052200378568150E-03
   4.092925669431287E-03   4.134060256272151E-03   4.175608252583707E-03
   4.217573813200204E-03   4.259961134712677E-03   4.302774455888600E-03
   4.346018058095774E-03   4.389696265730447E-03   4.433813446649786E-03
   4.478374012608647E-03   4.523382419700762E-03   4.568843168804343E-03
   4.614760806032185E-03   4.661139923186278E-03   4.707985158216989E-03
   4.755301195686852E-03   4.803092767239048E-03   4.851364652070559E-03
   4.900121677410094E-03   4.949368719000822E-03   4.999110701587935E-03
   5.049352599411145E-03   5.100099436702104E-03   5.151356288186836E-03
   5.203128279593191E-03   5.255420588163462E-03   5.308238443172080E-03
   5.361587126448568E-03   5.415471972905699E-03   5.469898371073030E-03
   5.524871763635730E-03   5.580397647978875E-03   5.636481576737161E-03
   5.693129158350203E-03   5.750346057623370E-03   5.808137996294276E-03
   5.866510753604937E-03   5.925470166879734E-03   5.985022132109128E-03
   6.045172604539272E-03   6.105927599267526E-03   6.167293191843996E-03
   6.229275518879080E-03   6.291880778657131E-03   6.355115231756305E-03
   6.418985201674596E-03   6.483497075462226E-03   6.548657304360334E-03
   6.614472404446119E-03   6.680948957284419E-03   6.748093610585924E-03
   6.815913078871918E-03   6.884414144145752E-03   6.953603656571026E-03
   7.023488535156644E-03   7.094075768448706E-03   7.165372415229368E-03
   7.237385605222711E-03   7.310122539807751E-03   7.383590492738560E-03
   7.457796810871662E-03   7.532748914900697E-03   7.608454300098533E-03
   7.684920537066778E-03   7.762155272492859E-03   7.840166229914666E-03
   7.918961210492959E-03   7.998548093791458E-03   8.078934838564814E-03
   8.160129483554501E-03   8.242140148292668E-03   8.324975033914137E-03
   8.408642423976501E-03   8.493150685288494E-03   8.578508268746659E-03
   8.664723710180478E-03   8.751805631205941E-03   8.839762740087732E-03
   8.928603832610014E-03   9.018337792956086E-03   9.108973594596760E-03
   9.200520301187738E-03   9.292987067475953E-03   9.386383140215098E-03
   9.480717859090276E-03   9.576000657651995E-03   9.672241064259499E-03
   9.769448703033656E-03   9.867633294819350E-03   9.966804658157592E-03
   1.006697271026734E-02   1.016814746803728E-02   1.027033904902752E-02
   1.037355767248130E-02   1.047781366034699E-02   1.058311743831026E-02
   1.068947953683664E-02   1.079691059222465E-02   1.090542134766934E-02
   1.101502265433666E-02   1.112572547244864E-02   1.123754087237933E-02
   1.135048003576192E-02   1.146455425660684E-02   1.157977494243124E-02
   1.169615361539974E-02   1.181370191347661E-02   1.193243159158960E-02
   1.205235452280548E-02   1.217348269951730E-02   1.229582823464369E-02
   1.241940336284009E-02   1.254422044172231E-02   1.267029195310225E-02
   1.279763050423613E-02   1.292624882908514E-02   1.305615978958898E-02
   1.318737637695194E-02   1.331991171294213E-02   1.345377905120356E-02
   1.358899177858163E-02   1.372556341646176E-02   1.386350762212154E-02
   1.400283819009651E-02   1.414356905355955E-02   1.428571428571429E-02
   1.442928810120240E-02   1.457430485752508E-02   1.472077905647880E-02
   1.486872534560556E-02   1.501815851965750E-02   1.516909352207657E-02
   1.532154544648881E-02   1.547552953821369E-02   1.563106119578872E-02
   1.578815597250925E-02   1.594682957798386E-02   1.610709787970538E-02
   1.626897690463747E-02   1.643248284081754E-02   1.659763203897548E-02
   1.676444101416872E-02   1.693292644743379E-02   1.710310518745443E-02
   1.727499425224644E-02   1.744861083085956E-02   1.762397228509635E-02
   1.780109615124831E-02   1.798000014184969E-02   1.816070214744864E-02
   1.834322023839631E-02   1.852757266665388E-02   1.871377786761781E-02
   1.890185446196337E-02   1.909182125750676E-02   1.928369725108577E-02
   1.947750163045969E-02   1.967325377622796E-02   1.987097326376829E-02
   2.007067986519419E-02   2.027239355133224E-02   2.047613449371914E-02
   2.068192306661894E-02   2.088977984906036E-02   2.109972562689490E-02
   2.131178139487530E-02   2.152596835875505E-02   2.174230793740905E-02
   2.196082176497544E-02   2.218153169301908E-02   2.240445979271668E-02
   2.262962835706404E-02   2.285705990310516E-02   2.308677717418420E-02
   2.331880314221970E-02   2.355316101000183E-02   2.378987421351266E-02
   2.402896642426980E-02   2.427046155169356E-02   2.451438374549800E-02
   2.476075739810566E-02   2.500960714708717E-02   2.526095787762480E-02
   2.551483472500105E-02   2.577126307711224E-02   2.603026857700726E-02
   2.629187712545195E-02   2.655611488351920E-02   2.682300827520492E-02
   2.709258399007075E-02   2.736486898591281E-02   2.763989049145760E-02
   2.791767600908485E-02   2.819825331757781E-02   2.848165047490116E-02
   2.876789582100684E-02   2.905701798066789E-02   2.934904586634127E-02
   2.964400868105891E-02   2.994193592134807E-02   3.024285738018107E-02
   3.054680314995454E-02   3.085380362549878E-02   3.116388950711714E-02
   3.147709180365627E-02   3.179344183560670E-02   3.211297123823532E-02
   3.243571196474867E-02   3.276169628948833E-02   3.309095681115845E-02
   3.342352645608557E-02   3.375943848151133E-02   3.409872647891828E-02
   3.444142437738874E-02   3.478756644699823E-02   3.513718730224216E-02
   3.549032190549738E-02   3.584700557051854E-02   3.620727396596934E-02
   3.657116311898958E-02   3.693870941879784E-02   3.730994962033029E-02
   3.768492084791649E-02   3.806366059899169E-02   3.844620674784661E-02
   3.883259754941493E-02   3.922287164309880E-02   3.961706805663281E-02
   4.001522620998682E-02   4.041738591930803E-02   4.082358740090237E-02
   4.123387127525657E-02   4.164827857109996E-02   4.206685072950749E-02
   4.248962960804378E-02   4.291665748494903E-02   4.334797706336677E-02
   4.378363147561436E-02   4.422366428749591E-02   4.466811950265939E-02
   4.511704156699670E-02   4.557047537308836E-02   4.602846626469285E-02
   4.649106004128100E-02   4.695830296261595E-02   4.743024175337930E-02
   4.790692360784324E-02   4.838839619459053E-02   4.887470766128107E-02
   4.936590663946681E-02   4.986204224945488E-02   5.036316410521974E-02
   5.086932231936456E-02   5.138056750813256E-02   5.189695079646875E-02
   5.241852382313209E-02   5.294533874586001E-02   5.347744824658376E-02
   5.401490553669687E-02   5.455776436237621E-02   5.510607900995676E-02
   5.565990431136018E-02   5.621929564957824E-02   5.678430896421073E-02
   5.735500075706005E-02   5.793142809778109E-02   5.851364862958824E-02
   5.910172057501989E-02   5.969570274176065E-02   6.029565452852215E-02
   6.090163593098318E-02   6.151370754778871E-02   6.213193058661063E-02
   6.275636687026798E-02   6.338707884290951E-02   6.402412957625807E-02
   6.466758277591787E-02   6.531750278774510E-02   6.597395460428254E-02
   6.663700387125900E-02   6.730671689415349E-02   6.798316064482653E-02
   6.866640276821685E-02   6.935651158910620E-02   7.005355611895173E-02
   7.075760606278733E-02   7.146873182619408E-02   7.218700452234103E-02
   7.291249597909615E-02   7.364527874620977E-02   7.438542610256929E-02
   7.513301206352713E-02   7.588811138830238E-02   7.665079958745677E-02
   7.742115293044576E-02   7.819924845324579E-02   7.898516396605726E-02
   7.977897806108654E-02   8.058077012040461E-02   8.139062032388561E-02
   8.220860965722472E-02   8.303481992003696E-02   8.386933373403713E-02
   8.471223455130203E-02   8.556360666261598E-02   8.642353520589929E-02
   8.729210617472304E-02   8.816940642690792E-02   8.905552369321025E-02
   8.995054658609510E-02   9.085456460859756E-02   9.176766816327329E-02
   9.268994856123883E-02   9.362149803130219E-02   9.456240972918688E-02
   9.551277774684674E-02   9.647269712187553E-02   9.744226384701071E-02
   9.842157487973273E-02   9.941072815196098E-02   1.004098225798472E-01
   1.014189580736663E-01   1.024382355478088E-01   1.034677569308717E-01
   1.045076251758510E-01   1.055579442704379E-01   1.066188192474170E-01
   1.076903561951703E-01   1.087726622682853E-01   1.098658456982715E-01
   1.109700158043825E-01   1.120852830045493E-01   1.132117588264213E-01
   1.143495559185193E-01   1.154987880615008E-01   1.166595701795378E-01
   1.178320183518094E-01   1.190162498241100E-01   1.202123830205734E-01
   1.214205375555161E-01   1.226408342453985E-01   1.238733951209065E-01
   1.251183434391548E-01   1.263758036960126E-01   1.276459016385535E-01
   1.289287642776304E-01   1.302245199005759E-01   1.315332980840322E-01
   1.328552297069084E-01   1.341904469634684E-01   1.355390833765504E-01
   1.369012738109197E-01   1.382771544867548E-01   1.396668629932700E-01
   1.410705383024742E-01   1.424883207830675E-01   1.439203522144799E-01
   1.453667758010477E-01   1.468277361863350E-01   1.483033794675978E-01
   1.497938532103939E-01   1.512993064633396E-01   1.528198897730152E-01
   1.543557551990181E-01   1.559070563291711E-01   1.574739482948801E-01
   1.590565877866472E-01   1.606551330697406E-01   1.622697440000208E-01
   1.639005820399261E-01   1.655478102746200E-01   1.672115934282981E-01
   1.688920978806624E-01   1.705894916835587E-01   1.723039445777817E-01
   1.740356280100496E-01   1.757847151501487E-01   1.775513809082505E-01
   1.793358019524032E-01   1.811381567261984E-01   1.829586254666149E-01
   1.847973902220441E-01   1.866546348704937E-01   1.885305451379765E-01
   1.904253086170825E-01   1.923391147857384E-01   1.942721550261560E-01
   1.962246226439706E-01   1.981967128875702E-01   2.001886229676232E-01
   2.022005520767972E-01   2.042327014096800E-01   2.062852741828983E-01
   2.083584756554398E-01   2.104525131491795E-01   2.125675960696121E-01
   2.147039359267917E-01   2.168617463564844E-01   2.190412431415315E-01
   2.212426442334277E-01   2.234661697741167E-01   2.257120421180056E-01
   2.279804858542003E-01   2.302717278289648E-01   2.325859971684063E-01
   2.349235253013866E-01   2.372845459826672E-01   2.396692953162840E-01
   2.420780117791574E-01   2.445109362449411E-01   2.469683120081090E-01
   2.494503848082854E-01   2.519574028548191E-01   2.544896168516030E-01
   2.570472800221475E-01   2.596306481349009E-01   2.622399795288275E-01